/*--------------------------------*- C++ -*----------------------------------*\
| =========                 |                                                 |
| \\      /  F ield         | OpenFOAM: The Open Source CFD Toolbox           |
|  \\    /   O peration     | Version:  2406                                  |
|   \\  /    A nd           | Website:  www.openfoam.com                      |
|    \\/     M anipulation  |                                                 |
\*---------------------------------------------------------------------------*/
FoamFile
{
    version     2.0;
    format      ascii;
    arch        "LSB;label=32;scalar=64";
    class       surfaceScalarField;
    location    "4.5";
    object      phi;
}
// * * * * * * * * * * * * * * * * * * * * * * * * * * * * * * * * * * * * * //

dimensions      [0 3 -1 0 0 0 0];

oriented        oriented;

internalField   nonuniform List<scalar> 
43700
(
1.81866e-08
1.81872e-08
4.79352e-07
-2.28545e-08
-2.2855e-08
1.35319e-08
1.67028e-08
5.18563e-07
-2.12269e-08
8.97187e-09
1.54739e-08
5.48371e-07
-1.98556e-08
4.48863e-09
1.47723e-08
5.68468e-07
-1.90444e-08
2.24282e-13
1.4355e-08
5.78564e-07
-1.85025e-08
-4.48878e-09
1.43551e-08
5.78565e-07
-1.85023e-08
-8.97168e-09
1.47737e-08
5.68467e-07
-1.90446e-08
-1.35327e-08
1.54743e-08
5.48372e-07
-1.9855e-08
-1.81876e-08
1.67031e-08
5.18563e-07
-2.12263e-08
1.81871e-08
4.79353e-07
-2.28547e-08
-2.28536e-08
1.6703e-08
1.35309e-08
5.18564e-07
-2.12285e-08
1.23315e-08
1.23318e-08
5.54586e-07
8.08054e-09
1.13799e-08
5.82037e-07
4.01423e-09
1.07884e-08
6.00549e-07
8.52285e-13
1.04695e-08
6.09872e-07
-4.01395e-09
1.04689e-08
6.09872e-07
-8.08103e-09
1.07878e-08
6.00549e-07
-1.23322e-08
1.13792e-08
5.82038e-07
-1.67038e-08
1.23325e-08
5.54586e-07
1.35323e-08
5.18563e-07
-2.12278e-08
1.54748e-08
8.97225e-09
5.48371e-07
-1.98557e-08
1.13804e-08
8.08113e-09
5.82038e-07
7.44896e-09
7.44909e-09
6.07735e-07
3.69164e-09
7.03752e-09
6.2507e-07
5.43262e-13
6.8302e-09
6.33809e-07
-3.69173e-09
6.82978e-09
6.33809e-07
-7.44913e-09
7.03687e-09
6.25071e-07
-1.13796e-08
7.44903e-09
6.07735e-07
-1.5475e-08
8.08073e-09
5.82038e-07
8.97228e-09
5.48371e-07
-1.9856e-08
1.47736e-08
4.48816e-09
5.68468e-07
-1.90452e-08
1.07891e-08
4.01367e-09
6.00549e-07
7.03744e-09
3.69126e-09
6.25071e-07
3.47487e-09
3.47434e-09
6.41629e-07
-1.72977e-13
3.37e-09
6.49978e-07
-3.47488e-09
3.37034e-09
6.49978e-07
-7.03676e-09
3.47528e-09
6.41628e-07
-1.0789e-08
3.69167e-09
6.25072e-07
-1.47733e-08
4.01504e-09
6.00549e-07
4.48832e-09
5.68468e-07
-1.90444e-08
1.43553e-08
-3.4853e-13
5.78564e-07
-1.85036e-08
1.04693e-08
-3.33171e-13
6.09872e-07
6.83098e-09
2.48416e-13
6.33809e-07
3.37049e-09
2.59736e-13
6.49978e-07
1.08779e-13
-6.04161e-13
6.58133e-07
-3.36984e-09
3.94099e-13
6.58134e-07
-6.83004e-09
6.68087e-13
6.49978e-07
-1.04681e-08
-1.30356e-13
6.33809e-07
-1.43557e-08
2.55171e-13
6.09873e-07
-4.3244e-14
5.78565e-07
-1.85032e-08
1.43554e-08
-4.48734e-09
5.78564e-07
-1.85039e-08
1.04693e-08
-4.01451e-09
6.09873e-07
6.83069e-09
-3.69167e-09
6.33809e-07
3.37018e-09
-3.47462e-09
6.49978e-07
1.13116e-12
-3.36964e-09
6.58132e-07
-3.36995e-09
-3.36979e-09
6.58133e-07
-6.83128e-09
-3.47506e-09
6.49978e-07
-1.04681e-08
-3.69093e-09
6.33809e-07
-1.43556e-08
-4.014e-09
6.09873e-07
-4.48731e-09
5.78564e-07
-1.85031e-08
1.47734e-08
-8.97191e-09
5.68468e-07
-1.9045e-08
1.07885e-08
-8.08098e-09
6.00549e-07
7.03819e-09
-7.44874e-09
6.25071e-07
3.4754e-09
-7.03831e-09
6.41628e-07
3.35296e-13
-6.82992e-09
6.49978e-07
-3.47571e-09
-6.83031e-09
6.49978e-07
-7.03644e-09
-7.03611e-09
6.41627e-07
-1.07886e-08
-7.44857e-09
6.25071e-07
-1.47738e-08
-8.08049e-09
6.0055e-07
-8.97174e-09
5.68468e-07
-1.90451e-08
1.54747e-08
-1.35314e-08
5.48371e-07
-1.98552e-08
1.13792e-08
-1.23312e-08
5.82037e-07
7.44884e-09
-1.13782e-08
6.07735e-07
3.69214e-09
-1.07875e-08
6.2507e-07
8.05194e-13
-1.04682e-08
6.33809e-07
-3.69162e-09
-1.04693e-08
6.33809e-07
-7.44864e-09
-1.0788e-08
6.25072e-07
-1.138e-08
-1.13794e-08
6.07736e-07
-1.54745e-08
-1.23323e-08
5.82036e-07
-1.35315e-08
5.48372e-07
-1.98557e-08
1.67032e-08
-1.81875e-08
5.18563e-07
-2.12274e-08
1.23312e-08
-1.67035e-08
5.54586e-07
8.08108e-09
-1.54739e-08
5.82037e-07
4.01446e-09
-1.47725e-08
6.00549e-07
1.0794e-12
-1.43548e-08
6.09873e-07
-4.0138e-09
-1.43554e-08
6.09872e-07
-8.0806e-09
-1.47736e-08
6.0055e-07
-1.23324e-08
-1.54749e-08
5.82037e-07
-1.67029e-08
-1.67028e-08
5.54587e-07
-1.81883e-08
5.18565e-07
-2.12275e-08
1.81872e-08
4.79353e-07
-2.28543e-08
-2.28544e-08
1.35318e-08
5.18564e-07
-2.12262e-08
8.97238e-09
5.48372e-07
-1.98546e-08
4.48738e-09
5.68467e-07
-1.90445e-08
4.8103e-13
5.78565e-07
-1.85027e-08
-4.48773e-09
5.78563e-07
-1.85032e-08
-8.97167e-09
5.68468e-07
-1.90458e-08
-1.35316e-08
5.48372e-07
-1.98575e-08
-1.81884e-08
5.18564e-07
-2.12276e-08
4.79353e-07
-2.28548e-08
-2.28535e-08
2.95771e-08
2.95759e-08
4.90502e-07
-3.51515e-08
-3.51515e-08
2.15613e-08
2.48419e-08
5.29879e-07
-2.81406e-08
1.43944e-08
2.29926e-08
5.59807e-07
-2.72606e-08
7.17576e-09
2.15061e-08
5.79979e-07
-2.57984e-08
-5.66171e-13
2.08286e-08
5.901e-07
-2.5188e-08
-7.17535e-09
2.08291e-08
5.90099e-07
-2.51883e-08
-1.43948e-08
2.15067e-08
5.79978e-07
-2.57991e-08
-2.15607e-08
2.29934e-08
5.59807e-07
-2.7261e-08
-2.9577e-08
2.48419e-08
5.29879e-07
-2.81411e-08
2.95767e-08
4.90501e-07
-3.5151e-08
-3.51502e-08
2.48418e-08
2.15611e-08
5.29879e-07
-2.8142e-08
1.91395e-08
1.9139e-08
5.65992e-07
1.30808e-08
1.76589e-08
5.9343e-07
6.60695e-09
1.65976e-08
6.11932e-07
-2.40087e-13
1.60713e-08
6.21236e-07
-6.60629e-09
1.60718e-08
6.21236e-07
-1.3081e-08
1.65974e-08
6.11933e-07
-1.91394e-08
1.76585e-08
5.93431e-07
-2.4842e-08
1.91385e-08
5.65991e-07
2.15606e-08
5.29878e-07
-2.81411e-08
2.29933e-08
1.43941e-08
5.59806e-07
-2.72625e-08
1.76587e-08
1.30808e-08
5.93431e-07
1.20009e-08
1.20011e-08
6.19051e-07
6.06068e-09
1.12846e-08
6.36325e-07
2.00723e-13
1.09193e-08
6.45023e-07
-6.06027e-09
1.0919e-08
6.45023e-07
-1.20016e-08
1.12835e-08
6.36326e-07
-1.76593e-08
1.20009e-08
6.1905e-07
-2.29938e-08
1.30808e-08
5.93431e-07
1.43942e-08
5.59807e-07
-2.72613e-08
2.15071e-08
7.17632e-09
5.7998e-07
-2.57988e-08
1.65968e-08
6.60651e-09
6.11933e-07
1.12842e-08
6.05984e-09
6.36325e-07
5.70603e-09
5.70572e-09
6.52785e-07
-5.24832e-14
5.52179e-09
6.61082e-07
-5.70704e-09
5.52177e-09
6.61081e-07
-1.12848e-08
5.7059e-09
6.52785e-07
-1.65971e-08
6.06042e-09
6.36325e-07
-2.15069e-08
6.60599e-09
6.11933e-07
7.1755e-09
5.79979e-07
-2.57992e-08
2.08295e-08
1.70677e-15
5.90099e-07
-2.51882e-08
1.60721e-08
6.57341e-13
6.21236e-07
1.09182e-08
-4.22404e-13
6.45023e-07
5.52221e-09
-1.1191e-14
6.61082e-07
-1.572e-13
-1.7652e-13
6.69177e-07
-5.52216e-09
1.12404e-12
6.69177e-07
-1.09193e-08
1.51683e-13
6.61082e-07
-1.60727e-08
5.87532e-14
6.45024e-07
-2.08298e-08
-3.54322e-13
6.21237e-07
3.78182e-14
5.90099e-07
-2.51878e-08
2.08291e-08
-7.17622e-09
5.90098e-07
-2.51876e-08
1.60727e-08
-6.60599e-09
6.21237e-07
1.09189e-08
-6.06099e-09
6.45023e-07
5.52178e-09
-5.7064e-09
6.61082e-07
-4.79777e-13
-5.52256e-09
6.69177e-07
-5.52282e-09
-5.52146e-09
6.69178e-07
-1.09192e-08
-5.70583e-09
6.61081e-07
-1.60724e-08
-6.05991e-09
6.45024e-07
-2.08296e-08
-6.60671e-09
6.21237e-07
-7.17618e-09
5.90099e-07
-2.51878e-08
2.15065e-08
-1.43954e-08
5.79979e-07
-2.57986e-08
1.65972e-08
-1.30808e-08
6.11933e-07
1.12845e-08
-1.2002e-08
6.36325e-07
5.70583e-09
-1.12849e-08
6.52785e-07
6.56809e-13
-1.09197e-08
6.61081e-07
-5.70596e-09
-1.09192e-08
6.61082e-07
-1.12856e-08
-1.12852e-08
6.52785e-07
-1.65979e-08
-1.20013e-08
6.36325e-07
-2.15067e-08
-1.3081e-08
6.11933e-07
-1.43946e-08
5.79979e-07
-2.57985e-08
2.29931e-08
-2.1561e-08
5.59807e-07
-2.72616e-08
1.76582e-08
-1.91399e-08
5.93431e-07
1.2002e-08
-1.76599e-08
6.1905e-07
6.06056e-09
-1.65979e-08
6.36324e-07
1.20286e-13
-1.60732e-08
6.45024e-07
-6.06011e-09
-1.60728e-08
6.45023e-07
-1.20017e-08
-1.65972e-08
6.36325e-07
-1.76591e-08
-1.76592e-08
6.1905e-07
-2.29931e-08
-1.91396e-08
5.93429e-07
-2.1562e-08
5.59807e-07
-2.72622e-08
2.48425e-08
-2.95776e-08
5.29879e-07
-2.81413e-08
1.91389e-08
-2.48431e-08
5.65993e-07
1.30811e-08
-2.29936e-08
5.9343e-07
6.60649e-09
-2.15067e-08
6.11933e-07
4.42218e-13
-2.08298e-08
6.21237e-07
-6.60622e-09
-2.08293e-08
6.21237e-07
-1.30819e-08
-2.15074e-08
6.11934e-07
-1.91399e-08
-2.29933e-08
5.9343e-07
-2.48429e-08
-2.48426e-08
5.65993e-07
-2.95772e-08
5.29879e-07
-2.81423e-08
2.95775e-08
4.90502e-07
-3.51514e-08
-3.5152e-08
2.15617e-08
5.29879e-07
-2.81427e-08
1.43948e-08
5.59807e-07
-2.72616e-08
7.17553e-09
5.79979e-07
-2.5799e-08
4.64142e-13
5.90099e-07
-2.51882e-08
-7.17592e-09
5.90098e-07
-2.5188e-08
-1.43952e-08
5.79979e-07
-2.57987e-08
-2.15616e-08
5.59807e-07
-2.72608e-08
-2.95773e-08
5.29879e-07
-2.81421e-08
4.90501e-07
-3.51507e-08
-3.51521e-08
3.39572e-08
3.39573e-08
5.02228e-07
-3.98209e-08
-3.98203e-08
2.51994e-08
2.88984e-08
5.4215e-07
-3.24103e-08
1.70146e-08
2.71458e-08
5.72477e-07
-3.16318e-08
8.50466e-09
2.53758e-08
5.92895e-07
-2.97816e-08
4.68188e-13
2.46765e-08
6.03135e-07
-2.92081e-08
-8.50347e-09
2.46763e-08
6.03135e-07
-2.92081e-08
-1.70139e-08
2.53762e-08
5.92895e-07
-2.9782e-08
-2.5199e-08
2.71464e-08
5.72477e-07
-3.16318e-08
-3.39584e-08
2.88994e-08
5.4215e-07
-3.24111e-08
3.39581e-08
5.02227e-07
-3.98211e-08
-3.98204e-08
2.88988e-08
2.51995e-08
5.42149e-07
-3.24109e-08
2.25315e-08
2.25307e-08
5.78727e-07
1.5575e-08
2.10795e-08
6.06452e-07
7.90004e-09
1.98548e-08
6.25129e-07
1.2891e-12
1.93069e-08
6.34505e-07
-7.89716e-09
1.9307e-08
6.34505e-07
-1.55739e-08
1.98549e-08
6.2513e-07
-2.253e-08
2.10804e-08
6.06453e-07
-2.88989e-08
2.25313e-08
5.78726e-07
2.51993e-08
5.42149e-07
-3.24101e-08
2.71456e-08
1.70145e-08
5.72477e-07
-3.16316e-08
2.10812e-08
1.5575e-08
6.06453e-07
1.44672e-08
1.44673e-08
6.32278e-07
7.32997e-09
1.36482e-08
6.4967e-07
4.4732e-13
1.32464e-08
6.58414e-07
-7.32819e-09
1.32466e-08
6.58414e-07
-1.44663e-08
1.36478e-08
6.4967e-07
-2.108e-08
1.44664e-08
6.32278e-07
-2.71457e-08
1.55751e-08
6.06453e-07
1.70137e-08
5.72478e-07
-3.1632e-08
2.53759e-08
8.50425e-09
5.92895e-07
-2.97818e-08
1.9856e-08
7.89871e-09
6.25129e-07
1.36487e-08
7.33052e-09
6.4967e-07
6.93779e-09
6.93721e-09
6.66207e-07
4.96863e-13
6.73415e-09
6.74531e-07
-6.93579e-09
6.73442e-09
6.7453e-07
-1.36468e-08
6.93719e-09
6.66207e-07
-1.98548e-08
7.32956e-09
6.49669e-07
-2.53759e-08
7.89829e-09
6.2513e-07
8.5037e-09
5.92895e-07
-2.97811e-08
2.46764e-08
4.44697e-13
6.03135e-07
-2.92083e-08
1.93074e-08
3.52787e-14
6.34505e-07
1.32468e-08
-3.02832e-13
6.58414e-07
6.73546e-09
5.21672e-13
6.7453e-07
6.56233e-13
-6.48984e-14
6.82647e-07
-6.73389e-09
-7.50285e-14
6.82646e-07
-1.3246e-08
7.0358e-13
6.74531e-07
-1.93064e-08
3.13071e-13
6.58414e-07
-2.4676e-08
-5.92082e-13
6.34505e-07
3.13224e-13
6.03134e-07
-2.9208e-08
2.46763e-08
-8.5038e-09
6.03135e-07
-2.9209e-08
1.93073e-08
-7.89852e-09
6.34504e-07
1.32465e-08
-7.32959e-09
6.58414e-07
6.7354e-09
-6.93614e-09
6.74531e-07
1.54607e-13
-6.73454e-09
6.82646e-07
-6.73431e-09
-6.73453e-09
6.82646e-07
-1.32461e-08
-6.93701e-09
6.7453e-07
-1.93067e-08
-7.33068e-09
6.58414e-07
-2.46762e-08
-7.89855e-09
6.34505e-07
-8.50386e-09
6.03135e-07
-2.92085e-08
2.53764e-08
-1.70139e-08
5.92895e-07
-2.97829e-08
1.9855e-08
-1.55743e-08
6.25131e-07
1.36482e-08
-1.44665e-08
6.4967e-07
6.93724e-09
-1.36473e-08
6.66207e-07
1.32289e-13
-1.32465e-08
6.74531e-07
-6.93661e-09
-1.32468e-08
6.74531e-07
-1.36468e-08
-1.36483e-08
6.66207e-07
-1.98545e-08
-1.4467e-08
6.4967e-07
-2.53759e-08
-1.55742e-08
6.2513e-07
-1.7015e-08
5.92895e-07
-2.97824e-08
2.71465e-08
-2.51983e-08
5.72477e-07
-3.16322e-08
2.10808e-08
-2.25314e-08
6.06453e-07
1.44682e-08
-2.108e-08
6.32278e-07
7.33005e-09
-1.98562e-08
6.49669e-07
2.84017e-13
-1.93066e-08
6.58414e-07
-7.32999e-09
-1.93069e-08
6.58414e-07
-1.44671e-08
-1.98554e-08
6.49669e-07
-2.10799e-08
-2.1081e-08
6.32277e-07
-2.71447e-08
-2.25314e-08
6.06452e-07
-2.51992e-08
5.72477e-07
-3.16309e-08
2.88981e-08
-3.39582e-08
5.4215e-07
-3.24106e-08
2.2531e-08
-2.88978e-08
5.78727e-07
1.55744e-08
-2.7146e-08
6.06453e-07
7.89901e-09
-2.53761e-08
6.2513e-07
3.32832e-13
-2.46761e-08
6.34505e-07
-7.89831e-09
-2.46757e-08
6.34504e-07
-1.55738e-08
-2.53757e-08
6.25131e-07
-2.25303e-08
-2.71464e-08
6.06453e-07
-2.88979e-08
-2.88993e-08
5.78728e-07
-3.39585e-08
5.4215e-07
-3.241e-08
3.39581e-08
5.02227e-07
-3.98204e-08
-3.98214e-08
2.51982e-08
5.4215e-07
-3.24093e-08
1.70151e-08
5.72477e-07
-3.16317e-08
8.50495e-09
5.92895e-07
-2.97821e-08
1.06755e-12
6.03135e-07
-2.92081e-08
-8.50307e-09
6.03135e-07
-2.92085e-08
-1.7014e-08
5.92895e-07
-2.97823e-08
-2.5199e-08
5.72478e-07
-3.16322e-08
-3.39582e-08
5.42149e-07
-3.24099e-08
5.02227e-07
-3.98219e-08
-3.98197e-08
3.38401e-08
3.38402e-08
5.13731e-07
-3.95913e-08
-3.95917e-08
2.55297e-08
2.94064e-08
5.54345e-07
-3.329e-08
1.73345e-08
2.80127e-08
5.85183e-07
-3.25236e-08
8.68946e-09
2.63753e-08
6.05911e-07
-3.07455e-08
-6.43598e-13
2.58022e-08
6.16312e-07
-3.02886e-08
-8.69045e-09
2.58023e-08
6.16313e-07
-3.02896e-08
-1.7335e-08
2.63754e-08
6.05911e-07
-3.07462e-08
-2.55288e-08
2.80129e-08
5.85183e-07
-3.25238e-08
-3.38391e-08
2.94062e-08
5.54345e-07
-3.32899e-08
3.3841e-08
5.13731e-07
-3.9592e-08
-3.95925e-08
2.94057e-08
2.55293e-08
5.54345e-07
-3.32898e-08
2.30144e-08
2.30139e-08
5.91511e-07
1.59452e-08
2.18591e-08
6.19675e-07
8.1027e-09
2.07217e-08
6.38625e-07
-3.93072e-13
2.02755e-08
6.48134e-07
-8.10286e-09
2.02752e-08
6.48134e-07
-1.59453e-08
2.07223e-08
6.38625e-07
-2.3014e-08
2.18593e-08
6.19675e-07
-2.94063e-08
2.3014e-08
5.91511e-07
2.553e-08
5.54344e-07
-3.32902e-08
2.80121e-08
1.73349e-08
5.85183e-07
-3.25236e-08
2.18592e-08
1.59448e-08
6.19676e-07
1.50615e-08
1.50621e-08
6.45871e-07
7.64316e-09
1.43104e-08
6.63501e-07
-2.04325e-13
1.39731e-08
6.72359e-07
-7.64282e-09
1.39733e-08
6.72358e-07
-1.50615e-08
1.4311e-08
6.635e-07
-2.18584e-08
1.50622e-08
6.45872e-07
-2.80125e-08
1.5945e-08
6.19675e-07
1.73346e-08
5.85183e-07
-3.25233e-08
2.63749e-08
8.6911e-09
6.05911e-07
-3.07456e-08
2.07221e-08
8.1026e-09
6.38625e-07
1.43103e-08
7.6425e-09
6.63501e-07
7.28932e-09
7.28849e-09
6.80251e-07
3.77196e-13
7.11857e-09
6.88675e-07
-7.28829e-09
7.11916e-09
6.88674e-07
-1.43107e-08
7.28829e-09
6.80251e-07
-2.07218e-08
7.64242e-09
6.63501e-07
-2.63755e-08
8.10255e-09
6.38625e-07
8.69055e-09
6.05912e-07
-3.07463e-08
2.58018e-08
1.1122e-13
6.16313e-07
-3.02896e-08
2.02756e-08
4.02179e-13
6.48133e-07
1.39734e-08
-5.66293e-13
6.72359e-07
7.11823e-09
-4.99725e-13
6.88673e-07
1.93612e-13
-4.32323e-13
6.96883e-07
-7.11845e-09
1.03333e-12
6.96883e-07
-1.3974e-08
3.16649e-13
6.88675e-07
-2.02754e-08
-4.24411e-14
6.72359e-07
-2.5802e-08
6.31037e-14
6.48134e-07
2.54089e-13
6.16313e-07
-3.02893e-08
2.58017e-08
-8.69091e-09
6.16314e-07
-3.02884e-08
2.0276e-08
-8.10258e-09
6.48133e-07
1.39734e-08
-7.64341e-09
6.72359e-07
7.11812e-09
-7.2885e-09
6.88674e-07
-4.31055e-13
-7.119e-09
6.96883e-07
-7.11829e-09
-7.11772e-09
6.96883e-07
-1.3974e-08
-7.28921e-09
6.88674e-07
-2.02759e-08
-7.6428e-09
6.72359e-07
-2.58018e-08
-8.10265e-09
6.48134e-07
-8.69079e-09
6.16313e-07
-3.02891e-08
2.63748e-08
-1.73352e-08
6.0591e-07
-3.07457e-08
2.07222e-08
-1.59447e-08
6.38626e-07
1.43107e-08
-1.5062e-08
6.635e-07
7.28895e-09
-1.43097e-08
6.80251e-07
6.26911e-14
-1.39736e-08
6.88675e-07
-7.2885e-09
-1.39733e-08
6.88675e-07
-1.43105e-08
-1.43109e-08
6.80251e-07
-2.07223e-08
-1.50625e-08
6.63501e-07
-2.6375e-08
-1.59452e-08
6.38626e-07
-1.73352e-08
6.05911e-07
-3.07464e-08
2.80115e-08
-2.55297e-08
5.85182e-07
-3.25231e-08
2.18582e-08
-2.30143e-08
6.19676e-07
1.50624e-08
-2.18588e-08
6.45871e-07
7.64295e-09
-2.07217e-08
6.635e-07
8.8586e-14
-2.02757e-08
6.72358e-07
-7.64277e-09
-2.02764e-08
6.72359e-07
-1.50624e-08
-2.07221e-08
6.63501e-07
-2.18585e-08
-2.18585e-08
6.4587e-07
-2.8012e-08
-2.30139e-08
6.19674e-07
-2.55291e-08
5.85182e-07
-3.25236e-08
2.9406e-08
-3.38408e-08
5.54345e-07
-3.32906e-08
2.30146e-08
-2.94068e-08
5.91511e-07
1.59453e-08
-2.80133e-08
6.19676e-07
8.10242e-09
-2.63747e-08
6.38625e-07
-1.07221e-13
-2.58021e-08
6.48134e-07
-8.10307e-09
-2.58016e-08
6.48133e-07
-1.59449e-08
-2.63753e-08
6.38626e-07
-2.30146e-08
-2.80122e-08
6.19675e-07
-2.94065e-08
-2.94054e-08
5.91511e-07
-3.38395e-08
5.54346e-07
-3.32904e-08
3.38395e-08
5.1373e-07
-3.95915e-08
-3.95921e-08
2.55294e-08
5.54345e-07
-3.32902e-08
1.73354e-08
5.85182e-07
-3.2523e-08
8.69084e-09
6.05911e-07
-3.07459e-08
3.07847e-13
6.16313e-07
-3.02895e-08
-8.69131e-09
6.16314e-07
-3.02885e-08
-1.73358e-08
6.05911e-07
-3.07462e-08
-2.55297e-08
5.85183e-07
-3.25234e-08
-3.38404e-08
5.54345e-07
-3.32899e-08
5.1373e-07
-3.95912e-08
-3.95915e-08
3.09738e-08
3.09739e-08
5.24227e-07
-3.6222e-08
-3.6222e-08
2.378e-08
2.76598e-08
5.65677e-07
-3.17985e-08
1.6223e-08
2.66741e-08
5.9711e-07
-3.10445e-08
8.1677e-09
2.53657e-08
6.18204e-07
-2.96008e-08
5.42082e-13
2.49519e-08
6.28797e-07
-2.92689e-08
-8.16619e-09
2.49517e-08
6.28797e-07
-2.9269e-08
-1.62227e-08
2.53662e-08
6.18203e-07
-2.9602e-08
-2.37806e-08
2.66746e-08
5.9711e-07
-3.10448e-08
-3.09734e-08
2.76602e-08
5.65677e-07
-3.1799e-08
3.09741e-08
5.24227e-07
-3.62222e-08
-3.62212e-08
2.76601e-08
2.37805e-08
5.65678e-07
-3.17989e-08
2.16628e-08
2.16626e-08
6.03505e-07
1.49815e-08
2.08446e-08
6.32187e-07
7.61928e-09
1.98952e-08
6.51459e-07
4.26035e-14
1.95724e-08
6.61132e-07
-7.61764e-09
1.95729e-08
6.61131e-07
-1.49808e-08
1.9895e-08
6.51458e-07
-2.16627e-08
2.08443e-08
6.32187e-07
-2.76594e-08
2.16623e-08
6.03505e-07
2.37797e-08
5.65677e-07
-3.17983e-08
2.66746e-08
1.6223e-08
5.9711e-07
-3.10453e-08
2.08449e-08
1.49816e-08
6.32187e-07
1.437e-08
1.43702e-08
6.58821e-07
7.29308e-09
1.37403e-08
6.76733e-07
6.29845e-13
1.34923e-08
6.85732e-07
-7.29257e-09
1.34913e-08
6.85732e-07
-1.43695e-08
1.37397e-08
6.76733e-07
-2.08448e-08
1.43689e-08
6.58822e-07
-2.66753e-08
1.49806e-08
6.32187e-07
1.62221e-08
5.97111e-07
-3.10455e-08
2.53656e-08
8.16657e-09
6.18203e-07
-2.96012e-08
1.98951e-08
7.61807e-09
6.51458e-07
1.37411e-08
7.29264e-09
6.76732e-07
6.99568e-09
6.99436e-09
6.93742e-07
8.0144e-13
6.86863e-09
7.02293e-07
-6.99451e-09
6.86819e-09
7.02293e-07
-1.37408e-08
6.99405e-09
6.93742e-07
-1.98958e-08
7.29157e-09
6.76732e-07
-2.53662e-08
7.61726e-09
6.51458e-07
8.16581e-09
6.18204e-07
-2.96013e-08
2.49523e-08
-6.65627e-13
6.28798e-07
-2.92691e-08
1.95722e-08
-5.06393e-13
6.61131e-07
1.34922e-08
-2.13109e-13
6.85733e-07
6.86965e-09
-7.31728e-13
7.02292e-07
6.68879e-13
-5.96014e-13
7.10622e-07
-6.86899e-09
-9.14876e-13
7.10623e-07
-1.34925e-08
-9.95267e-13
7.02293e-07
-1.9573e-08
-8.64096e-13
6.85732e-07
-2.49517e-08
-1.63051e-12
6.61131e-07
-1.8739e-12
6.28797e-07
-2.92686e-08
2.4952e-08
-8.16764e-09
6.28798e-07
-2.92687e-08
1.9573e-08
-7.61933e-09
6.6113e-07
1.3492e-08
-7.2928e-09
6.85732e-07
6.86885e-09
-6.99604e-09
7.02293e-07
-2.15163e-13
-6.87032e-09
7.10623e-07
-6.87014e-09
-6.87016e-09
7.10623e-07
-1.34928e-08
-6.99624e-09
7.02292e-07
-1.95728e-08
-7.29387e-09
6.85732e-07
-2.4952e-08
-7.6193e-09
6.61132e-07
-8.16766e-09
6.28797e-07
-2.92695e-08
2.53656e-08
-1.62238e-08
6.18203e-07
-2.96019e-08
1.98953e-08
-1.49812e-08
6.51458e-07
1.37401e-08
-1.43708e-08
6.76732e-07
6.9949e-09
-1.37412e-08
6.93742e-07
-5.3537e-14
-1.34935e-08
7.02293e-07
-6.99489e-09
-1.34927e-08
7.02293e-07
-1.37407e-08
-1.37411e-08
6.93742e-07
-1.98955e-08
-1.43703e-08
6.76732e-07
-2.53663e-08
-1.49814e-08
6.51459e-07
-1.62235e-08
6.18203e-07
-2.96015e-08
2.66756e-08
-2.37804e-08
5.9711e-07
-3.10452e-08
2.08453e-08
-2.16635e-08
6.32187e-07
1.43699e-08
-2.08455e-08
6.58822e-07
7.29227e-09
-1.98962e-08
6.76733e-07
-5.30422e-13
-1.95731e-08
6.85732e-07
-7.29326e-09
-1.95733e-08
6.85732e-07
-1.43701e-08
-1.98966e-08
6.76733e-07
-2.08446e-08
-2.0846e-08
6.58821e-07
-2.6675e-08
-2.16627e-08
6.32186e-07
-2.37804e-08
5.9711e-07
-3.10454e-08
2.76601e-08
-3.09751e-08
5.65678e-07
-3.17991e-08
2.16635e-08
-2.76605e-08
6.03505e-07
1.49807e-08
-2.66753e-08
6.32187e-07
7.61784e-09
-2.53663e-08
6.51459e-07
9.67459e-14
-2.49518e-08
6.61131e-07
-7.61855e-09
-2.49516e-08
6.61131e-07
-1.49808e-08
-2.53661e-08
6.51458e-07
-2.16625e-08
-2.66757e-08
6.32187e-07
-2.76598e-08
-2.76607e-08
6.03506e-07
-3.09745e-08
5.65678e-07
-3.17985e-08
3.09749e-08
5.24226e-07
-3.62224e-08
-3.62218e-08
2.37801e-08
5.65677e-07
-3.17992e-08
1.62229e-08
5.9711e-07
-3.10457e-08
8.16713e-09
6.18203e-07
-2.96022e-08
3.93174e-13
6.28798e-07
-2.92696e-08
-8.16709e-09
6.28797e-07
-2.92687e-08
-1.62226e-08
6.18203e-07
-2.9602e-08
-2.37796e-08
5.9711e-07
-3.10458e-08
-3.0974e-08
5.65677e-07
-3.17996e-08
5.24226e-07
-3.62216e-08
-3.62225e-08
2.70631e-08
2.70627e-08
5.33476e-07
-3.16873e-08
-3.1687e-08
2.11013e-08
2.49952e-08
5.75849e-07
-2.9205e-08
1.44486e-08
2.44689e-08
6.0789e-07
-2.85963e-08
7.30583e-09
2.36258e-08
6.29366e-07
-2.76454e-08
-4.41427e-13
2.33996e-08
6.40161e-07
-2.74565e-08
-7.30632e-09
2.33998e-08
6.40161e-07
-2.74574e-08
-1.44488e-08
2.36263e-08
6.29367e-07
-2.76466e-08
-2.11013e-08
2.44697e-08
6.0789e-07
-2.85964e-08
-2.70626e-08
2.49962e-08
5.75849e-07
-2.92063e-08
2.70639e-08
5.33475e-07
-3.16876e-08
-3.16873e-08
2.49962e-08
2.11008e-08
5.75849e-07
-2.92061e-08
1.95601e-08
1.95591e-08
6.14377e-07
1.34795e-08
1.91344e-08
6.43602e-07
6.8571e-09
1.84823e-08
6.63225e-07
-4.99635e-13
1.8308e-08
6.73081e-07
-6.8571e-09
1.83077e-08
6.7308e-07
-1.34795e-08
1.84826e-08
6.63224e-07
-1.95602e-08
1.91351e-08
6.43602e-07
-2.49964e-08
1.95598e-08
6.14377e-07
2.11017e-08
5.75849e-07
-2.9206e-08
2.44695e-08
1.44485e-08
6.0789e-07
-2.85967e-08
1.91344e-08
1.34789e-08
6.43601e-07
1.31823e-08
1.3183e-08
6.70725e-07
6.6925e-09
1.27474e-08
6.88959e-07
7.25176e-13
1.26102e-08
6.98122e-07
-6.69238e-09
1.26106e-08
6.98122e-07
-1.31826e-08
1.27461e-08
6.88959e-07
-1.91344e-08
1.31837e-08
6.70725e-07
-2.44697e-08
1.34804e-08
6.43602e-07
1.4449e-08
6.07891e-07
-2.85968e-08
2.3626e-08
7.30629e-09
6.29366e-07
-2.76467e-08
1.84824e-08
6.85736e-09
6.63224e-07
1.27481e-08
6.69266e-09
6.88958e-07
6.48369e-09
6.48277e-09
7.0627e-07
1.06346e-12
6.41291e-09
7.14973e-07
-6.48259e-09
6.41313e-09
7.14974e-07
-1.27462e-08
6.48255e-09
7.0627e-07
-1.84819e-08
6.69253e-09
6.88958e-07
-2.36265e-08
6.85795e-09
6.63224e-07
7.30642e-09
6.29367e-07
-2.76461e-08
2.34003e-08
-6.21404e-13
6.40161e-07
-2.74576e-08
1.83079e-08
-3.68086e-13
6.73081e-07
1.26109e-08
-7.87563e-13
6.98123e-07
6.41354e-09
-6.98292e-13
7.14973e-07
1.419e-12
-7.15999e-13
7.23448e-07
-6.41218e-09
4.14045e-13
7.23449e-07
-1.26106e-08
2.96262e-13
7.14973e-07
-1.8308e-08
2.92872e-13
6.98123e-07
-2.34004e-08
2.09762e-13
6.7308e-07
-2.44467e-13
6.40161e-07
-2.74572e-08
2.34004e-08
-7.30722e-09
6.40161e-07
-2.74575e-08
1.83084e-08
-6.85774e-09
6.7308e-07
1.26111e-08
-6.69219e-09
6.98122e-07
6.4128e-09
-6.48308e-09
7.14973e-07
-2.33258e-13
-6.41353e-09
7.23449e-07
-6.41264e-09
-6.41271e-09
7.23448e-07
-1.26105e-08
-6.48295e-09
7.14973e-07
-1.83076e-08
-6.69207e-09
6.98122e-07
-2.33997e-08
-6.85681e-09
6.73081e-07
-7.30656e-09
6.40161e-07
-2.74573e-08
2.3626e-08
-1.44492e-08
6.29367e-07
-2.76468e-08
1.84828e-08
-1.34793e-08
6.63223e-07
1.27476e-08
-1.31836e-08
6.88958e-07
6.4839e-09
-1.2747e-08
7.0627e-07
1.0282e-12
-1.26102e-08
7.14974e-07
-6.48254e-09
-1.26099e-08
7.14973e-07
-1.27469e-08
-1.27468e-08
7.0627e-07
-1.84818e-08
-1.31832e-08
6.88958e-07
-2.3626e-08
-1.3479e-08
6.63225e-07
-1.44494e-08
6.29366e-07
-2.76469e-08
2.44695e-08
-2.11017e-08
6.0789e-07
-2.85975e-08
1.91346e-08
-1.95609e-08
6.43602e-07
1.31837e-08
-1.91355e-08
6.70725e-07
6.69335e-09
-1.84826e-08
6.88958e-07
-1.11585e-13
-1.83078e-08
6.98122e-07
-6.69209e-09
-1.83082e-08
6.98123e-07
-1.31823e-08
-1.84821e-08
6.88959e-07
-1.91341e-08
-1.91357e-08
6.70725e-07
-2.44693e-08
-1.95596e-08
6.43602e-07
-2.11009e-08
6.0789e-07
-2.85968e-08
2.49969e-08
-2.70626e-08
5.75848e-07
-2.92055e-08
1.95611e-08
-2.49969e-08
6.14377e-07
1.34804e-08
-2.44695e-08
6.43602e-07
6.85871e-09
-2.36255e-08
6.63224e-07
7.0808e-13
-2.34006e-08
6.7308e-07
-6.85725e-09
-2.34003e-08
6.73081e-07
-1.34791e-08
-2.36259e-08
6.63224e-07
-1.95599e-08
-2.44696e-08
6.43602e-07
-2.49969e-08
-2.49964e-08
6.14378e-07
-2.7062e-08
5.75849e-07
-2.92058e-08
2.70636e-08
5.33475e-07
-3.16875e-08
-3.16884e-08
2.1102e-08
5.75849e-07
-2.92066e-08
1.44484e-08
6.0789e-07
-2.85963e-08
7.30684e-09
6.29366e-07
-2.76468e-08
9.55554e-13
6.40162e-07
-2.74572e-08
-7.30611e-09
6.40161e-07
-2.74568e-08
-1.44479e-08
6.29366e-07
-2.76463e-08
-2.11015e-08
6.0789e-07
-2.85969e-08
-2.70638e-08
5.75849e-07
-2.92058e-08
5.33476e-07
-3.16871e-08
-3.16878e-08
2.3168e-08
2.31682e-08
5.41429e-07
-2.71443e-08
-2.71443e-08
1.8291e-08
2.19628e-08
5.84782e-07
-2.60196e-08
1.25546e-08
2.16925e-08
6.17428e-07
-2.54941e-08
6.37034e-09
2.11978e-08
6.39281e-07
-2.49289e-08
3.20209e-13
2.10948e-08
6.50266e-07
-2.48312e-08
-6.36962e-09
2.10951e-08
6.50266e-07
-2.48304e-08
-1.25545e-08
2.11974e-08
6.39282e-07
-2.49284e-08
-1.82907e-08
2.16923e-08
6.17428e-07
-2.54943e-08
-2.31673e-08
2.19619e-08
5.84782e-07
-2.60191e-08
2.31679e-08
5.41429e-07
-2.71443e-08
-2.71444e-08
2.19622e-08
1.82915e-08
5.84782e-07
-2.6019e-08
1.71482e-08
1.71486e-08
6.24005e-07
1.17598e-08
1.69468e-08
6.53736e-07
5.97761e-09
1.65145e-08
6.7369e-07
-3.84419e-13
1.64354e-08
6.83719e-07
-5.9785e-09
1.64344e-08
6.83719e-07
-1.176e-08
1.65142e-08
6.73689e-07
-1.71482e-08
1.69459e-08
6.53737e-07
-2.19624e-08
1.7148e-08
6.24005e-07
1.82906e-08
5.84782e-07
-2.60192e-08
2.16932e-08
1.25546e-08
6.17428e-07
-2.54939e-08
1.69468e-08
1.17594e-08
6.53737e-07
1.16517e-08
1.16523e-08
6.81314e-07
5.91381e-09
1.136e-08
6.99852e-07
-8.51626e-13
1.12983e-08
7.09173e-07
-5.91514e-09
1.12981e-08
7.09173e-07
-1.16522e-08
1.13586e-08
6.99852e-07
-1.69462e-08
1.16524e-08
6.81314e-07
-2.16931e-08
1.17595e-08
6.53736e-07
1.25545e-08
6.17429e-07
-2.54932e-08
2.11979e-08
6.36984e-09
6.39281e-07
-2.49279e-08
1.65141e-08
5.97718e-09
6.73688e-07
1.13597e-08
5.91395e-09
6.99851e-07
5.76899e-09
5.76832e-09
7.17452e-07
-7.62261e-14
5.73626e-09
7.26304e-07
-5.76966e-09
5.73678e-09
7.26305e-07
-1.13599e-08
5.76837e-09
7.17451e-07
-1.65153e-08
5.91479e-09
6.99852e-07
-2.1199e-08
5.97819e-09
6.7369e-07
6.36966e-09
6.39281e-07
-2.49281e-08
2.10953e-08
-8.04895e-13
6.50267e-07
-2.48307e-08
1.64351e-08
-1.69587e-12
6.8372e-07
1.12991e-08
-9.60563e-13
7.09173e-07
5.73671e-09
-6.5859e-13
7.26305e-07
-7.53771e-13
-1.22642e-12
7.34923e-07
-5.73719e-09
-1.93836e-13
7.34923e-07
-1.12995e-08
3.47687e-13
7.26303e-07
-1.64354e-08
1.08757e-13
7.09174e-07
-2.10954e-08
-6.24051e-13
6.83719e-07
-6.71498e-13
6.50266e-07
-2.48307e-08
2.10953e-08
-6.37068e-09
6.50266e-07
-2.48303e-08
1.64351e-08
-5.97907e-09
6.83719e-07
1.12983e-08
-5.91421e-09
7.09173e-07
5.73598e-09
-5.76997e-09
7.26304e-07
-4.85072e-13
-5.73798e-09
7.34923e-07
-5.73793e-09
-5.73805e-09
7.34923e-07
-1.13003e-08
-5.76904e-09
7.26305e-07
-1.64353e-08
-5.91469e-09
7.09173e-07
-2.10955e-08
-5.97897e-09
6.83719e-07
-6.37107e-09
6.50266e-07
-2.48314e-08
2.11973e-08
-1.25549e-08
6.39282e-07
-2.49283e-08
1.65138e-08
-1.176e-08
6.73688e-07
1.13603e-08
-1.16533e-08
6.99851e-07
5.76944e-09
-1.13611e-08
7.17452e-07
-4.0056e-13
-1.12993e-08
7.26304e-07
-5.76971e-09
-1.12989e-08
7.26304e-07
-1.13604e-08
-1.13604e-08
7.17452e-07
-1.65151e-08
-1.16543e-08
6.99851e-07
-2.11982e-08
-1.17603e-08
6.73689e-07
-1.25558e-08
6.39281e-07
-2.4929e-08
2.16917e-08
-1.8292e-08
6.17429e-07
-2.54933e-08
1.69464e-08
-1.71489e-08
6.53736e-07
1.16525e-08
-1.69479e-08
6.81314e-07
5.9141e-09
-1.65161e-08
6.99851e-07
-9.84977e-13
-1.64359e-08
7.09173e-07
-5.9154e-09
-1.64358e-08
7.09174e-07
-1.16528e-08
-1.65157e-08
6.99852e-07
-1.6947e-08
-1.69479e-08
6.81314e-07
-2.16927e-08
-1.71493e-08
6.53736e-07
-1.82917e-08
6.17427e-07
-2.54939e-08
2.19622e-08
-2.31685e-08
5.84782e-07
-2.60188e-08
1.7148e-08
-2.19628e-08
6.24005e-07
1.17598e-08
-2.16937e-08
6.53737e-07
5.97835e-09
-2.11989e-08
6.73688e-07
2.23029e-13
-2.10962e-08
6.83719e-07
-5.97855e-09
-2.10963e-08
6.83719e-07
-1.17606e-08
-2.11995e-08
6.73689e-07
-1.71487e-08
-2.16937e-08
6.53736e-07
-2.1962e-08
-2.19626e-08
6.24005e-07
-2.31682e-08
5.84782e-07
-2.60194e-08
2.31674e-08
5.41428e-07
-2.71455e-08
-2.71437e-08
1.82903e-08
5.84782e-07
-2.60201e-08
1.25533e-08
6.17428e-07
-2.54945e-08
6.37008e-09
6.39282e-07
-2.49293e-08
3.75088e-13
6.50267e-07
-2.48316e-08
-6.36993e-09
6.50266e-07
-2.48313e-08
-1.25542e-08
6.3928e-07
-2.49294e-08
-1.82915e-08
6.17427e-07
-2.54943e-08
-2.3168e-08
5.84782e-07
-2.60192e-08
5.41428e-07
-2.71435e-08
-2.71449e-08
2.00909e-08
2.00901e-08
5.48262e-07
-2.35072e-08
-2.35072e-08
1.60086e-08
1.94817e-08
5.92621e-07
-2.32385e-08
1.10166e-08
1.93956e-08
6.25861e-07
-2.28361e-08
5.60591e-09
1.91567e-08
6.48087e-07
-2.25516e-08
-3.86506e-13
1.91406e-08
6.59257e-07
-2.25247e-08
-5.60457e-09
1.91399e-08
6.59256e-07
-2.25249e-08
-1.10159e-08
1.91568e-08
6.48088e-07
-2.25521e-08
-1.60081e-08
1.93951e-08
6.25862e-07
-2.28366e-08
-2.00907e-08
1.94828e-08
5.92621e-07
-2.32396e-08
2.009e-08
5.48262e-07
-2.35083e-08
-2.35058e-08
1.94831e-08
1.60073e-08
5.92622e-07
-2.32387e-08
1.52038e-08
1.52019e-08
6.32563e-07
1.03927e-08
1.51571e-08
6.62785e-07
5.28011e-09
1.48976e-08
6.83061e-07
-3.58162e-13
1.48806e-08
6.93259e-07
-5.27926e-09
1.48796e-08
6.9326e-07
-1.03912e-08
1.48969e-08
6.83061e-07
-1.52018e-08
1.51582e-08
6.62785e-07
-1.94815e-08
1.52029e-08
6.32564e-07
1.6007e-08
5.92621e-07
-2.32374e-08
1.93961e-08
1.10158e-08
6.25861e-07
-2.28369e-08
1.51579e-08
1.03915e-08
6.62785e-07
1.04094e-08
1.04092e-08
6.90811e-07
5.28413e-09
1.02268e-08
7.09648e-07
4.89395e-13
1.02148e-08
7.19122e-07
-5.28394e-09
1.0215e-08
7.19122e-07
-1.04087e-08
1.02253e-08
7.09648e-07
-1.51571e-08
1.04095e-08
6.90811e-07
-1.93959e-08
1.0392e-08
6.62786e-07
1.10163e-08
6.25861e-07
-2.28366e-08
1.91578e-08
5.60529e-09
6.48087e-07
-2.25522e-08
1.48976e-08
5.27898e-09
6.83061e-07
1.02271e-08
5.2837e-09
7.09647e-07
5.18846e-09
5.18752e-09
7.27529e-07
8.43052e-13
5.17943e-09
7.36526e-07
-5.18673e-09
5.18076e-09
7.36527e-07
-1.02261e-08
5.18735e-09
7.27528e-07