/*--------------------------------*- C++ -*----------------------------------*\
| =========                 |                                                 |
| \\      /  F ield         | OpenFOAM: The Open Source CFD Toolbox           |
|  \\    /   O peration     | Version:  2406                                  |
|   \\  /    A nd           | Website:  www.openfoam.com                      |
|    \\/     M anipulation  |                                                 |
\*---------------------------------------------------------------------------*/
FoamFile
{
    version     2.0;
    format      ascii;
    arch        "LSB;label=32;scalar=64";
    class       volVectorField;
    location    "4.5";
    object      U;
}
// * * * * * * * * * * * * * * * * * * * * * * * * * * * * * * * * * * * * * //

dimensions      [0 1 -1 0 0 0 0];

internalField   nonuniform List<vector> 
15000
(
(0.000145637 0.000145646 0.00999928)
(0.00010883 0.000136693 0.00999885)
(7.47877e-05 0.000124892 0.00999836)
(4.40625e-05 0.000117841 0.00999772)
(1.46575e-05 0.000113516 0.00999728)
(-1.46575e-05 0.000113516 0.00999729)
(-4.40702e-05 0.000117844 0.00999771)
(-7.47936e-05 0.000124891 0.00999838)
(-0.000108835 0.000136686 0.00999885)
(-0.000145645 0.000145635 0.0099993)
(0.000136695 0.000108836 0.00999889)
(9.67834e-05 9.67952e-05 0.00999728)
(6.66552e-05 8.88036e-05 0.00999557)
(3.89741e-05 8.36607e-05 0.009994)
(1.27804e-05 8.08484e-05 0.00999317)
(-1.27784e-05 8.08369e-05 0.00999315)
(-3.89787e-05 8.36632e-05 0.00999402)
(-6.66613e-05 8.88019e-05 0.00999559)
(-9.67915e-05 9.67953e-05 0.00999726)
(-0.000136698 0.000108834 0.00999884)
(0.000124889 7.47895e-05 0.00999837)
(8.88028e-05 6.6655e-05 0.00999558)
(6.06729e-05 6.06727e-05 0.0099928)
(3.53695e-05 5.67482e-05 0.00999068)
(1.15569e-05 5.47647e-05 0.0099897)
(-1.15588e-05 5.47661e-05 0.00998967)
(-3.53715e-05 5.6746e-05 0.00999067)
(-6.06724e-05 6.06749e-05 0.00999279)
(-8.8806e-05 6.66602e-05 0.00999559)
(-0.000124892 7.47964e-05 0.00999838)
(0.00011784 4.40581e-05 0.00999774)
(8.36702e-05 3.89767e-05 0.00999401)
(5.67518e-05 3.53707e-05 0.0099907)
(3.29109e-05 3.29158e-05 0.00998852)
(1.07276e-05 3.16963e-05 0.00998751)
(-1.07323e-05 3.1701e-05 0.00998752)
(-3.29086e-05 3.2919e-05 0.00998851)
(-5.67452e-05 3.53766e-05 0.00999072)
(-8.36733e-05 3.89876e-05 0.00999402)
(-0.000117839 4.40702e-05 0.00999772)
(0.000113522 1.46518e-05 0.00999727)
(8.08463e-05 1.27785e-05 0.00999318)
(5.47675e-05 1.15638e-05 0.00998971)
(3.16972e-05 1.07309e-05 0.00998752)
(1.03356e-05 1.03317e-05 0.0099866)
(-1.0332e-05 1.03363e-05 0.00998662)
(-3.17004e-05 1.07338e-05 0.00998751)
(-5.4759e-05 1.15632e-05 0.00998969)
(-8.08403e-05 1.27821e-05 0.00999317)
(-0.00011352 1.4656e-05 0.00999729)
(0.000113519 -1.46462e-05 0.00999729)
(8.08477e-05 -1.27799e-05 0.00999319)
(5.47639e-05 -1.15633e-05 0.00998968)
(3.17034e-05 -1.07303e-05 0.00998754)
(1.03306e-05 -1.03332e-05 0.00998659)
(-1.03332e-05 -1.03373e-05 0.0099866)
(-3.17032e-05 -1.07314e-05 0.00998753)
(-5.4763e-05 -1.15646e-05 0.00998967)
(-8.08394e-05 -1.27788e-05 0.00999317)
(-0.000113515 -1.46508e-05 0.00999727)
(0.000117843 -4.40634e-05 0.00999774)
(8.36714e-05 -3.89828e-05 0.00999399)
(5.67469e-05 -3.53676e-05 0.0099907)
(3.29145e-05 -3.29196e-05 0.00998851)
(1.07369e-05 -3.1701e-05 0.00998753)
(-1.07357e-05 -3.16934e-05 0.00998751)
(-3.29151e-05 -3.29102e-05 0.00998847)
(-5.67396e-05 -3.53657e-05 0.0099907)
(-8.36733e-05 -3.89805e-05 0.00999402)
(-0.000117842 -4.4064e-05 0.00999773)
(0.000124896 -7.47906e-05 0.00999838)
(8.87994e-05 -6.66566e-05 0.00999556)
(6.0674e-05 -6.06699e-05 0.00999279)
(3.53686e-05 -5.67445e-05 0.00999068)
(1.15675e-05 -5.47532e-05 0.00998967)
(-1.15632e-05 -5.47684e-05 0.00998969)
(-3.53676e-05 -5.67421e-05 0.0099907)
(-6.06736e-05 -6.06743e-05 0.00999279)
(-8.88027e-05 -6.66544e-05 0.00999556)
(-0.00012489 -7.47858e-05 0.00999839)
(0.000136699 -0.00010884 0.00999885)
(9.67855e-05 -9.67944e-05 0.00999725)
(6.66595e-05 -8.87968e-05 0.00999557)
(3.89813e-05 -8.36608e-05 0.00999401)
(1.27815e-05 -8.08409e-05 0.00999319)
(-1.27807e-05 -8.08445e-05 0.00999315)
(-3.89763e-05 -8.36687e-05 0.00999401)
(-6.66579e-05 -8.87973e-05 0.00999557)
(-9.67868e-05 -9.67911e-05 0.00999726)
(-0.000136692 -0.00010884 0.00999887)
(0.000145648 -0.000145636 0.00999928)
(0.000108834 -0.00013669 0.00999885)
(7.47883e-05 -0.000124889 0.00999839)
(4.40669e-05 -0.000117838 0.00999772)
(1.46535e-05 -0.000113516 0.00999731)
(-1.46532e-05 -0.000113516 0.00999726)
(-4.40629e-05 -0.000117845 0.00999774)
(-7.47858e-05 -0.000124901 0.00999839)
(-0.000108836 -0.000136695 0.00999886)
(-0.000145651 -0.000145646 0.00999931)
(0.000198584 0.000198578 0.0103211)
(0.000143846 0.000169849 0.0102906)
(9.97141e-05 0.000166387 0.0102684)
(5.92669e-05 0.000160183 0.0102546)
(1.95808e-05 0.000157554 0.0102474)
(-1.9588e-05 0.00015755 0.0102474)
(-5.92669e-05 0.000160184 0.0102545)
(-9.97133e-05 0.00016639 0.0102684)
(-0.000143844 0.000169849 0.0102906)
(-0.000198577 0.000198582 0.0103211)
(0.000169842 0.000143838 0.0102906)
(0.000130629 0.000130617 0.0102605)
(9.51034e-05 0.000125961 0.0102398)
(5.67596e-05 0.000122215 0.0102267)
(1.90003e-05 0.000120606 0.0102204)
(-1.90053e-05 0.000120613 0.0102205)
(-5.67582e-05 0.000122217 0.0102267)
(-9.51072e-05 0.000125961 0.0102397)
(-0.000130628 0.000130615 0.0102605)
(-0.000169839 0.000143841 0.0102906)
(0.000166396 9.97177e-05 0.0102684)
(0.000125964 9.51088e-05 0.0102398)
(9.06473e-05 9.06568e-05 0.0102206)
(5.39412e-05 8.75861e-05 0.0102083)
(1.80092e-05 8.59683e-05 0.0102023)
(-1.80095e-05 8.59647e-05 0.0102024)
(-5.39423e-05 8.75846e-05 0.0102083)
(-9.06539e-05 9.0651e-05 0.0102206)
(-0.000125966 9.51091e-05 0.0102398)
(-0.000166393 9.97127e-05 0.0102684)
(0.000160193 5.92674e-05 0.0102546)
(0.000122209 5.67527e-05 0.0102267)
(8.75857e-05 5.3941e-05 0.0102083)
(5.21258e-05 5.21328e-05 0.0101964)
(1.7376e-05 5.11698e-05 0.0101906)
(-1.73808e-05 5.11708e-05 0.0101906)
(-5.21315e-05 5.2125e-05 0.0101964)
(-8.759e-05 5.39429e-05 0.0102083)
(-0.000122211 5.67501e-05 0.0102267)
(-0.000160191 5.92641e-05 0.0102546)
(0.000157555 1.95848e-05 0.0102474)
(0.000120613 1.90045e-05 0.0102204)
(8.59682e-05 1.79932e-05 0.0102023)
(5.11658e-05 1.7373e-05 0.0101906)
(1.70386e-05 1.70353e-05 0.0101848)
(-1.70393e-05 1.70396e-05 0.0101848)
(-5.11738e-05 1.73784e-05 0.0101906)
(-8.59716e-05 1.80012e-05 0.0102023)
(-0.00012062 1.90014e-05 0.0102205)
(-0.00015755 1.9587e-05 0.0102474)
(0.000157548 -1.95876e-05 0.0102474)
(0.000120621 -1.89948e-05 0.0102205)
(8.59649e-05 -1.79984e-05 0.0102023)
(5.11742e-05 -1.73787e-05 0.0101906)
(1.70286e-05 -1.70389e-05 0.0101848)
(-1.70401e-05 -1.70314e-05 0.0101848)
(-5.11784e-05 -1.73765e-05 0.0101906)
(-8.59636e-05 -1.80005e-05 0.0102024)
(-0.000120621 -1.90089e-05 0.0102205)
(-0.000157551 -1.95894e-05 0.0102474)
(0.000160192 -5.92713e-05 0.0102546)
(0.00012221 -5.6754e-05 0.0102267)
(8.75871e-05 -5.39495e-05 0.0102083)
(5.2125e-05 -5.21311e-05 0.0101963)
(1.73742e-05 -5.11773e-05 0.0101906)
(-1.73731e-05 -5.11723e-05 0.0101906)
(-5.21354e-05 -5.21373e-05 0.0101964)
(-8.75925e-05 -5.39459e-05 0.0102083)
(-0.000122215 -5.67561e-05 0.0102267)
(-0.000160187 -5.92695e-05 0.0102546)
(0.000166393 -9.97178e-05 0.0102684)
(0.000125958 -9.51123e-05 0.0102398)
(9.06545e-05 -9.06553e-05 0.0102206)
(5.39479e-05 -8.75873e-05 0.0102083)
(1.80007e-05 -8.59683e-05 0.0102024)
(-1.80048e-05 -8.59649e-05 0.0102023)
(-5.39423e-05 -8.75816e-05 0.0102083)
(-9.0664e-05 -9.0647e-05 0.0102206)
(-0.000125957 -9.51103e-05 0.0102397)
(-0.000166399 -9.97183e-05 0.0102684)
(0.000169847 -0.000143843 0.0102906)
(0.00013063 -0.000130622 0.0102606)
(9.51046e-05 -0.000125969 0.0102398)
(5.67551e-05 -0.000122214 0.0102267)
(1.89982e-05 -0.000120622 0.0102205)
(-1.89989e-05 -0.000120623 0.0102205)
(-5.67598e-05 -0.00012222 0.0102268)
(-9.51114e-05 -0.00012597 0.0102398)
(-0.000130631 -0.00013062 0.0102606)
(-0.000169849 -0.000143841 0.0102906)
(0.000198578 -0.00019859 0.0103212)
(0.00014385 -0.000169856 0.0102906)
(9.97216e-05 -0.000166395 0.0102684)
(5.92621e-05 -0.00016019 0.0102546)
(1.95857e-05 -0.000157551 0.0102474)
(-1.95898e-05 -0.000157549 0.0102474)
(-5.92644e-05 -0.000160191 0.0102546)
(-9.97238e-05 -0.000166388 0.0102684)
(-0.000143846 -0.000169852 0.0102906)
(-0.000198582 -0.000198586 0.0103211)
(0.000222124 0.000222124 0.0105616)
(0.000165946 0.000192479 0.0105225)
(0.000116188 0.000193487 0.0104932)
(6.97231e-05 0.000186904 0.0104743)
(2.2754e-05 0.000185436 0.0104643)
(-2.2748e-05 0.000185437 0.0104642)
(-6.9714e-05 0.000186906 0.0104743)
(-0.000116187 0.00019348 0.0104933)
(-0.000165944 0.00019248 0.0105225)
(-0.000222131 0.000222129 0.0105616)
(0.000192481 0.000165952 0.0105225)
(0.000153099 0.000153097 0.0104827)
(0.000111484 0.000149611 0.0104513)
(6.7382e-05 0.000145629 0.0104308)
(2.25613e-05 0.000144455 0.0104204)
(-2.2548e-05 0.000144448 0.0104204)
(-6.73685e-05 0.000145629 0.0104308)
(-0.00011148 0.00014962 0.0104513)
(-0.000153091 0.000153099 0.0104827)
(-0.000192473 0.00016595 0.0105225)
(0.00019348 0.000116186 0.0104933)
(0.000149621 0.000111485 0.0104513)
(0.00010838 0.00010838 0.0104196)
(6.49217e-05 0.000105416 0.0103989)
(2.1736e-05 0.000104022 0.0103886)
(-2.1729e-05 0.000104029 0.0103886)
(-6.49141e-05 0.000105414 0.0103989)
(-0.000108375 0.000108374 0.0104196)
(-0.000149612 0.000111487 0.0104513)
(-0.000193478 0.000116179 0.0104933)
(0.000186903 6.97219e-05 0.0104743)
(0.000145638 6.73737e-05 0.0104308)
(0.000105416 6.49188e-05 0.0103989)
(6.321e-05 6.32017e-05 0.0103782)
(2.12089e-05 6.23559e-05 0.0103682)
(-2.11999e-05 6.23528e-05 0.0103682)
(-6.32027e-05 6.32047e-05 0.0103782)
(-0.000105407 6.4916e-05 0.0103988)
(-0.000145634 6.73763e-05 0.0104308)
(-0.000186896 6.972e-05 0.0104743)
(0.000185441 2.27503e-05 0.0104643)
(0.00014445 2.25562e-05 0.0104204)
(0.000104025 2.17506e-05 0.0103886)
(6.23604e-05 2.12106e-05 0.0103682)
(2.08918e-05 2.08858e-05 0.0103584)
(-2.08853e-05 2.08867e-05 0.0103584)
(-6.23538e-05 2.12061e-05 0.0103682)
(-0.000104018 2.17459e-05 0.0103886)
(-0.000144453 2.25526e-05 0.0104204)
(-0.000185427 2.27458e-05 0.0104643)
(0.000185428 -2.27447e-05 0.0104642)
(0.000144462 -2.25572e-05 0.0104204)
(0.000104022 -2.17516e-05 0.0103886)
(6.23608e-05 -2.11985e-05 0.0103682)
(2.0886e-05 -2.08852e-05 0.0103584)
(-2.08855e-05 -2.08848e-05 0.0103584)
(-6.23632e-05 -2.12016e-05 0.0103682)
(-0.000104014 -2.17492e-05 0.0103886)
(-0.000144456 -2.25587e-05 0.0104204)
(-0.00018543 -2.2744e-05 0.0104643)
(0.000186916 -6.97215e-05 0.0104743)
(0.000145629 -6.73709e-05 0.0104308)
(0.000105419 -6.49084e-05 0.0103989)
(6.32044e-05 -6.3202e-05 0.0103782)
(2.12068e-05 -6.236e-05 0.0103682)
(-2.12079e-05 -6.23574e-05 0.0103682)
(-6.31988e-05 -6.32068e-05 0.0103782)
(-0.000105409 -6.49192e-05 0.0103988)
(-0.000145629 -6.73715e-05 0.0104308)
(-0.000186911 -6.97242e-05 0.0104743)
(0.00019349 -0.000116176 0.0104933)
(0.000149619 -0.000111483 0.0104513)
(0.000108383 -0.000108379 0.0104196)
(6.49161e-05 -0.00010542 0.0103988)
(2.17534e-05 -0.000104024 0.0103886)
(-2.17484e-05 -0.000104028 0.0103886)
(-6.49171e-05 -0.000105418 0.0103988)
(-0.000108384 -0.000108376 0.0104196)
(-0.000149609 -0.000111484 0.0104513)
(-0.000193472 -0.000116187 0.0104933)
(0.000192482 -0.000165948 0.0105225)
(0.000153096 -0.000153094 0.0104827)
(0.000111483 -0.00014961 0.0104513)
(6.73729e-05 -0.000145632 0.0104308)
(2.25546e-05 -0.000144445 0.0104204)
(-2.25518e-05 -0.000144448 0.0104204)
(-6.7371e-05 -0.000145629 0.0104308)
(-0.000111481 -0.000149621 0.0104513)
(-0.000153094 -0.000153099 0.0104827)
(-0.000192477 -0.000165948 0.0105225)
(0.000222138 -0.000222125 0.0105616)
(0.000165942 -0.000192471 0.0105225)
(0.000116187 -0.000193481 0.0104933)
(6.9721e-05 -0.000186906 0.0104743)
(2.27534e-05 -0.000185438 0.0104643)
(-2.27412e-05 -0.000185432 0.0104643)
(-6.97184e-05 -0.000186911 0.0104743)
(-0.000116188 -0.000193488 0.0104933)
(-0.000165939 -0.000192485 0.0105225)
(-0.000222135 -0.000222125 0.0105616)
(0.000217344 0.000217337 0.0108075)
(0.000165918 0.000194159 0.0107628)
(0.000116789 0.000198665 0.0107311)
(7.05683e-05 0.000193817 0.0107107)
(2.27154e-05 0.000193855 0.0107004)
(-2.27193e-05 0.000193865 0.0107004)
(-7.05776e-05 0.000193811 0.0107107)
(-0.000116786 0.000198661 0.010731)
(-0.00016591 0.000194156 0.0107628)
(-0.000217337 0.000217343 0.0108075)
(0.000194145 0.000165924 0.0107628)
(0.00015574 0.000155733 0.0107214)
(0.000112839 0.000154656 0.0106902)
(6.87873e-05 0.000151687 0.0106702)
(2.28234e-05 0.000151364 0.01066)
(-2.28262e-05 0.000151359 0.01066)
(-6.87953e-05 0.000151692 0.0106702)
(-0.000112833 0.000154659 0.0106902)
(-0.000155743 0.000155728 0.0107214)
(-0.000194152 0.000165928 0.0107628)
(0.000198664 0.00011678 0.010731)
(0.000154655 0.000112838 0.0106902)
(0.000112285 0.000112286 0.0106602)
(6.74959e-05 0.000110235 0.0106405)
(2.25874e-05 0.000109631 0.0106306)
(-2.25871e-05 0.000109626 0.0106306)
(-6.75005e-05 0.000110238 0.0106405)
(-0.000112281 0.000112287 0.0106602)
(-0.000154654 0.000112839 0.0106902)
(-0.000198666 0.000116784 0.0107311)
(0.000193815 7.05842e-05 0.0107107)
(0.000151689 6.87837e-05 0.0106702)
(0.000110233 6.74999e-05 0.0106405)
(6.63438e-05 6.63399e-05 0.0106208)
(2.2303e-05 6.58905e-05 0.0106109)
(-2.22983e-05 6.58944e-05 0.0106108)
(-6.63428e-05 6.63433e-05 0.0106208)
(-0.000110234 6.7504e-05 0.0106405)
(-0.000151688 6.87889e-05 0.0106702)
(-0.000193817 7.05821e-05 0.0107107)
(0.000193866 2.27165e-05 0.0107004)
(0.000151361 2.28275e-05 0.01066)
(0.000109627 2.25761e-05 0.0106306)
(6.58879e-05 2.22898e-05 0.0106108)
(2.21373e-05 2.21317e-05 0.0106009)
(-2.21336e-05 2.21338e-05 0.0106009)
(-6.58918e-05 2.22924e-05 0.0106108)
(-0.00010963 2.25767e-05 0.0106306)
(-0.000151365 2.28257e-05 0.01066)
(-0.000193854 2.27138e-05 0.0107004)
(0.000193854 -2.27143e-05 0.0107004)
(0.000151366 -2.28238e-05 0.01066)
(0.000109632 -2.25832e-05 0.0106306)
(6.58885e-05 -2.22917e-05 0.0106108)
(2.21272e-05 -2.21356e-05 0.0106009)
(-2.21325e-05 -2.21224e-05 0.0106009)
(-6.58924e-05 -2.22927e-05 0.0106108)
(-0.000109627 -2.25786e-05 0.0106306)
(-0.000151366 -2.28221e-05 0.01066)
(-0.000193856 -2.27121e-05 0.0107004)
(0.000193809 -7.05885e-05 0.0107107)
(0.000151694 -6.87843e-05 0.0106702)
(0.000110231 -6.7502e-05 0.0106405)
(6.63473e-05 -6.63423e-05 0.0106208)
(2.22925e-05 -6.58963e-05 0.0106108)
(-2.22903e-05 -6.58894e-05 0.0106109)
(-6.63447e-05 -6.63472e-05 0.0106208)
(-0.00011023 -6.75034e-05 0.0106405)
(-0.000151694 -6.87871e-05 0.0106702)
(-0.000193812 -7.05847e-05 0.0107107)
(0.000198663 -0.000116778 0.010731)
(0.000154649 -0.000112836 0.0106902)
(0.000112284 -0.000112281 0.0106602)
(6.74967e-05 -0.000110232 0.0106405)
(2.25852e-05 -0.000109631 0.0106306)
(-2.25827e-05 -0.000109631 0.0106306)
(-6.74962e-05 -0.000110232 0.0106405)
(-0.000112287 -0.000112282 0.0106602)
(-0.00015465 -0.000112837 0.0106902)
(-0.000198662 -0.000116778 0.010731)
(0.00019415 -0.000165926 0.0107628)
(0.000155743 -0.000155738 0.0107214)
(0.000112834 -0.000154663 0.0106902)
(6.87901e-05 -0.000151686 0.0106702)
(2.28257e-05 -0.000151359 0.01066)
(-2.28284e-05 -0.000151367 0.01066)
(-6.87873e-05 -0.000151693 0.0106702)
(-0.000112836 -0.000154656 0.0106902)
(-0.000155744 -0.000155733 0.0107214)
(-0.000194144 -0.000165922 0.0107629)
(0.000217333 -0.000217343 0.0108075)
(0.000165922 -0.000194155 0.0107628)
(0.000116781 -0.000198663 0.010731)
(7.05808e-05 -0.000193809 0.0107107)
(2.27182e-05 -0.000193865 0.0107004)
(-2.27179e-05 -0.000193854 0.0107004)
(-7.05826e-05 -0.000193814 0.0107107)
(-0.000116789 -0.000198659 0.0107311)
(-0.000165925 -0.000194146 0.0107628)
(-0.000217338 -0.000217336 0.0108075)
(0.000195934 0.000195934 0.0110497)
(0.000152592 0.000182415 0.0109996)
(0.000108093 0.000188977 0.0109623)
(6.56801e-05 0.000186675 0.0109371)
(2.09192e-05 0.000187918 0.0109243)
(-2.09174e-05 0.00018792 0.0109243)
(-6.56712e-05 0.000186676 0.0109371)
(-0.00010809 0.000188973 0.0109623)
(-0.000152589 0.000182419 0.0109996)
(-0.000195931 0.00019594 0.0110497)
(0.000182412 0.000152592 0.0109996)
(0.000146263 0.000146256 0.0109489)
(0.000105251 0.000147358 0.0109099)
(6.44529e-05 0.000145655 0.0108838)
(2.11378e-05 0.000146055 0.0108706)
(-2.1138e-05 0.000146055 0.0108706)
(-6.44447e-05 0.000145664 0.0108838)
(-0.000105244 0.00014737 0.0109098)
(-0.000146255 0.000146254 0.0109489)
(-0.000182411 0.000152589 0.0109996)
(0.000188983 0.000108088 0.0109623)
(0.000147367 0.000105251 0.0109099)
(0.000106872 0.000106873 0.0108702)
(6.43102e-05 0.000105775 0.0108441)
(2.14378e-05 0.000105902 0.010831)
(-2.14371e-05 0.000105899 0.010831)
(-6.43064e-05 0.000105766 0.010844)
(-0.00010687 0.000106861 0.0108702)
(-0.000147366 0.000105242 0.0109098)
(-0.000188983 0.000108087 0.0109623)
(0.000186667 6.56757e-05 0.0109371)
(0.000145672 6.44403e-05 0.0108838)
(0.000105769 6.43103e-05 0.010844)
(6.36781e-05 6.366e-05 0.010818)
(2.13657e-05 6.35941e-05 0.0108052)
(-2.13573e-05 6.359e-05 0.0108052)
(-6.3675e-05 6.36589e-05 0.0108181)
(-0.000105769 6.43041e-05 0.010844)
(-0.000145671 6.44439e-05 0.0108838)
(-0.000186665 6.56701e-05 0.0109371)
(0.000187926 2.09169e-05 0.0109243)
(0.000146057 2.11375e-05 0.0108706)
(0.000105899 2.14311e-05 0.010831)
(6.36003e-05 2.13651e-05 0.0108052)
(2.13673e-05 2.13593e-05 0.0107926)
(-2.13607e-05 2.13594e-05 0.0107926)
(-6.35947e-05 2.13711e-05 0.0108052)
(-0.000105908 2.14351e-05 0.010831)
(-0.000146055 2.11326e-05 0.0108706)
(-0.00018792 2.09049e-05 0.0109243)
(0.000187915 -2.09203e-05 0.0109243)
(0.00014606 -2.11439e-05 0.0108705)
(0.000105902 -2.14366e-05 0.010831)
(6.35991e-05 -2.13727e-05 0.0108052)
(2.13563e-05 -2.13639e-05 0.0107926)
(-2.13631e-05 -2.13692e-05 0.0107926)
(-6.36068e-05 -2.13848e-05 0.0108052)
(-0.000105899 -2.14444e-05 0.010831)
(-0.000146056 -2.11474e-05 0.0108706)
(-0.000187923 -2.09281e-05 0.0109243)
(0.000186673 -6.56817e-05 0.0109371)
(0.000145661 -6.44451e-05 0.0108838)
(0.000105765 -6.43068e-05 0.010844)
(6.36735e-05 -6.36733e-05 0.010818)
(2.13626e-05 -6.36077e-05 0.0108053)
(-2.13661e-05 -6.36017e-05 0.0108052)
(-6.36701e-05 -6.36666e-05 0.0108181)
(-0.000105768 -6.43167e-05 0.010844)
(-0.000145666 -6.44506e-05 0.0108838)
(-0.000186676 -6.56763e-05 0.0109371)
(0.000188986 -0.000108088 0.0109623)
(0.000147368 -0.000105248 0.0109099)
(0.000106874 -0.000106879 0.0108702)
(6.43024e-05 -0.000105777 0.0108441)
(2.14406e-05 -0.000105907 0.010831)
(-2.14486e-05 -0.000105901 0.010831)
(-6.43069e-05 -0.000105775 0.0108441)
(-0.000106874 -0.00010687 0.0108702)
(-0.000147362 -0.000105248 0.0109098)
(-0.000188979 -0.000108095 0.0109623)
(0.000182411 -0.000152595 0.0109996)
(0.000146261 -0.000146264 0.0109489)
(0.000105248 -0.000147371 0.0109098)
(6.44407e-05 -0.000145669 0.0108838)
(2.114e-05 -0.000146056 0.0108706)
(-2.11381e-05 -0.000146062 0.0108705)
(-6.44499e-05 -0.00014567 0.0108838)
(-0.000105242 -0.000147384 0.0109098)
(-0.000146258 -0.00014626 0.0109489)
(-0.000182407 -0.00015259 0.0109996)
(0.00019595 -0.00019594 0.0110497)
(0.000152584 -0.000182419 0.0109995)
(0.000108091 -0.000188979 0.0109623)
(6.56678e-05 -0.000186678 0.0109371)
(2.09294e-05 -0.000187927 0.0109243)
(-2.0925e-05 -0.000187924 0.0109243)
(-6.56678e-05 -0.00018668 0.0109371)
(-0.000108087 -0.000188975 0.0109623)
(-0.000152584 -0.000182423 0.0109996)
(-0.000195938 -0.000195946 0.0110497)
(0.000169413 0.000169409 0.0112572)
(0.000133606 0.000165763 0.0112109)
(9.52218e-05 0.000173808 0.0111763)
(5.795e-05 0.000174503 0.011153)
(1.83849e-05 0.000176761 0.0111415)
(-1.8389e-05 0.000176772 0.0111415)
(-5.79512e-05 0.000174502 0.011153)
(-9.52189e-05 0.000173811 0.0111763)
(-0.000133604 0.000165771 0.0112109)
(-0.000169408 0.000169422 0.0112572)
(0.000165769 0.000133602 0.0112109)
(0.00013184 0.000131827 0.011164)
(9.4258e-05 0.00013528 0.0111294)
(5.77304e-05 0.000135406 0.0111064)
(1.87494e-05 0.000136571 0.0110948)
(-1.8755e-05 0.000136564 0.0110948)
(-5.77285e-05 0.000135414 0.0111064)
(-9.42567e-05 0.000135282 0.0111294)
(-0.000131842 0.000131828 0.011164)
(-0.000165768 0.000133606 0.0112109)
(0.000173814 9.52106e-05 0.0111764)
(0.000135285 9.42493e-05 0.0111294)
(9.79667e-05 9.79637e-05 0.011095)
(5.89074e-05 9.81796e-05 0.011072)
(1.95972e-05 9.90848e-05 0.0110604)
(-1.95896e-05 9.9086e-05 0.0110605)
(-5.89158e-05 9.8171e-05 0.011072)
(-9.79595e-05 9.79693e-05 0.011095)
(-0.000135286 9.42614e-05 0.0111294)
(-0.000173809 9.52225e-05 0.0111764)
(0.000174501 5.79573e-05 0.011153)
(0.000135414 5.77284e-05 0.0111064)
(9.8178e-05 5.8914e-05 0.011072)
(5.90148e-05 5.90045e-05 0.011049)
(1.97702e-05 5.93597e-05 0.0110373)
(-1.97613e-05 5.93665e-05 0.0110373)
(-5.9005e-05 5.90008e-05 0.011049)
(-9.81694e-05 5.89193e-05 0.011072)
(-0.000135409 5.77332e-05 0.0111064)
(-0.000174504 5.79554e-05 0.011153)
(0.000176774 1.83805e-05 0.0111415)
(0.00013657 1.87544e-05 0.0110948)
(9.90903e-05 1.95897e-05 0.0110605)
(5.93634e-05 1.97607e-05 0.0110373)
(1.99516e-05 1.9941e-05 0.0110256)
(-1.99329e-05 1.99427e-05 0.0110256)
(-5.93622e-05 1.97675e-05 0.0110373)
(-9.90904e-05 1.95957e-05 0.0110605)
(-0.000136574 1.87574e-05 0.0110948)
(-0.000176766 1.83813e-05 0.0111415)
(0.000176769 -1.83834e-05 0.0111415)
(0.000136577 -1.87576e-05 0.0110948)
(9.90895e-05 -1.95938e-05 0.0110604)
(5.93651e-05 -1.97665e-05 0.0110373)
(1.99432e-05 -1.99456e-05 0.0110256)
(-1.99517e-05 -1.9939e-05 0.0110256)
(-5.93547e-05 -1.97695e-05 0.0110373)
(-9.90906e-05 -1.9592e-05 0.0110605)
(-0.000136566 -1.87519e-05 0.0110948)
(-0.00017677 -1.83843e-05 0.0111415)
(0.000174503 -5.79608e-05 0.011153)
(0.000135408 -5.77294e-05 0.0111064)
(9.81785e-05 -5.89139e-05 0.011072)
(5.90152e-05 -5.90055e-05 0.011049)
(1.97699e-05 -5.93713e-05 0.0110373)
(-1.976e-05 -5.93663e-05 0.0110373)
(-5.90112e-05 -5.90039e-05 0.011049)
(-9.81668e-05 -5.89166e-05 0.011072)
(-0.000135409 -5.77288e-05 0.0111064)
(-0.000174503 -5.79603e-05 0.011153)
(0.000173814 -9.52186e-05 0.0111763)
(0.000135277 -9.42576e-05 0.0111295)
(9.79728e-05 -9.79691e-05 0.011095)
(5.89159e-05 -9.818e-05 0.011072)
(1.95931e-05 -9.90849e-05 0.0110604)
(-1.95916e-05 -9.90788e-05 0.0110604)
(-5.8904e-05 -9.81694e-05 0.011072)
(-9.79698e-05 -9.7966e-05 0.011095)
(-0.000135274 -9.42523e-05 0.0111294)
(-0.000173812 -9.52146e-05 0.0111763)
(0.000165765 -0.000133604 0.0112109)
(0.000131847 -0.000131839 0.011164)
(9.42612e-05 -0.000135285 0.0111295)
(5.77347e-05 -0.000135401 0.0111064)
(1.87553e-05 -0.000136566 0.0110948)
(-1.87449e-05 -0.000136578 0.0110948)
(-5.77301e-05 -0.00013541 0.0111064)
(-9.42502e-05 -0.000135289 0.0111295)
(-0.000131845 -0.000131833 0.011164)
(-0.000165763 -0.000133597 0.0112109)
(0.000169413 -0.000169412 0.0112572)
(0.000133612 -0.000165774 0.0112109)
(9.52183e-05 -0.000173811 0.0111764)
(5.79488e-05 -0.000174504 0.011153)
(1.83981e-05 -0.000176769 0.0111415)
(-1.83888e-05 -0.000176759 0.0111415)
(-5.79446e-05 -0.000174501 0.011153)
(-9.52153e-05 -0.000173808 0.0111764)
(-0.000133608 -0.000165769 0.0112109)
(-0.000169416 -0.000169408 0.0112572)
(0.00014398 0.00014399 0.011443)
(0.000114635 0.000146751 0.0113986)
(8.21503e-05 0.000154705 0.0113617)
(4.99353e-05 0.000157375 0.0113357)
(1.58655e-05 0.000160041 0.0113228)
(-1.58607e-05 0.000160041 0.0113228)
(-4.99306e-05 0.000157366 0.0113357)
(-8.21535e-05 0.000154701 0.0113617)
(-0.000114632 0.000146738 0.0113986)
(-0.000143979 0.000143987 0.011443)
(0.000146737 0.000114634 0.0113986)
(0.000115446 0.000115443 0.011347)
(8.21198e-05 0.000119839 0.0113076)
(5.01071e-05 0.000121045 0.0112807)
(1.61674e-05 0.000122558 0.0112674)
(-1.61737e-05 0.00012256 0.0112674)
(-5.01077e-05 0.000121051 0.0112807)
(-8.2121e-05 0.000119838 0.0113076)
(-0.000115445 0.000115441 0.011347)
(-0.000146745 0.00011463 0.0113986)
(0.000154703 8.21569e-05 0.0113617)
(0.000119849 8.21179e-05 0.0113076)
(8.66275e-05 8.66329e-05 0.0112669)
(5.19732e-05 8.76225e-05 0.0112398)
(1.72575e-05 8.89262e-05 0.0112264)
(-1.72667e-05 8.89167e-05 0.0112264)
(-5.19781e-05 8.76167e-05 0.0112398)
(-8.66295e-05 8.66293e-05 0.0112669)
(-0.000119845 8.21189e-05 0.0113076)
(-0.000154701 8.21555e-05 0.0113617)
(0.000157358 4.99327e-05 0.0113357)
(0.00012106 5.00986e-05 0.0112807)
(8.76086e-05 5.1975e-05 0.0112398)
(5.25034e-05 5.24924e-05 0.0112128)
(1.75542e-05 5.30795e-05 0.0111995)
(-1.75538e-05 5.30836e-05 0.0111995)
(-5.25058e-05 5.2485e-05 0.0112128)
(-8.76123e-05 5.19804e-05 0.0112398)
(-0.000121069 5.01045e-05 0.0112807)
(-0.000157371 4.99283e-05 0.0113357)
(0.000160046 1.58573e-05 0.0113228)
(0.000122555 1.61623e-05 0.0112674)
(8.89303e-05 1.72555e-05 0.0112264)
(5.30883e-05 1.75584e-05 0.0111995)
(1.78386e-05 1.78403e-05 0.0111863)
(-1.78453e-05 1.78453e-05 0.0111863)
(-5.30879e-05 1.75621e-05 0.0111995)
(-8.89317e-05 1.72618e-05 0.0112264)
(-0.000122562 1.6163e-05 0.0112674)
(-0.000160043 1.58578e-05 0.0113228)
(0.000160038 -1.58661e-05 0.0113228)
(0.000122565 -1.61793e-05 0.0112674)
(8.892e-05 -1.72632e-05 0.0112264)
(5.30808e-05 -1.75708e-05 0.0111995)
(1.78414e-05 -1.78539e-05 0.0111863)
(-1.78502e-05 -1.78519e-05 0.0111863)
(-5.30934e-05 -1.75621e-05 0.0111995)
(-8.89329e-05 -1.72605e-05 0.0112264)
(-0.00012256 -1.61737e-05 0.0112674)
(-0.000160044 -1.58707e-05 0.0113228)
(0.000157369 -4.99373e-05 0.0113357)
(0.000121043 -5.01072e-05 0.0112807)
(8.7614e-05 -5.19743e-05 0.0112398)
(5.25047e-05 -5.25007e-05 0.0112128)
(1.75579e-05 -5.30956e-05 0.0111995)
(-1.75627e-05 -5.30928e-05 0.0111995)
(-5.25046e-05 -5.24989e-05 0.0112128)
(-8.76194e-05 -5.19889e-05 0.0112398)
(-0.000121053 -5.01071e-05 0.0112807)
(-0.000157377 -4.99381e-05 0.0113357)
(0.000154696 -8.21583e-05 0.0113617)
(0.000119836 -8.21207e-05 0.0113076)
(8.66338e-05 -8.66431e-05 0.0112669)
(5.19688e-05 -8.76332e-05 0.0112398)
(1.72603e-05 -8.89283e-05 0.0112264)
(-1.72683e-05 -8.8923e-05 0.0112264)
(-5.19759e-05 -8.76211e-05 0.0112398)
(-8.66395e-05 -8.66402e-05 0.0112669)
(-0.00011984 -8.21271e-05 0.0113076)
(-0.000154703 -8.21626e-05 0.0113617)
(0.000146741 -0.000114636 0.0113986)
(0.00011544 -0.00011545 0.011347)
(8.2117e-05 -0.000119849 0.0113076)
(5.01033e-05 -0.000121053 0.0112807)
(1.61715e-05 -0.000122563 0.0112674)
(-1.6168e-05 -0.000122571 0.0112674)
(-5.01112e-05 -0.000121067 0.0112807)
(-8.21205e-05 -0.000119851 0.0113076)
(-0.000115443 -0.000115446 0.011347)
(-0.000146741 -0.000114628 0.0113986)
(0.000143983 -0.000143988 0.011443)
(0.00011462 -0.000146747 0.0113986)
(8.2155e-05 -0.000154709 0.0113617)
(4.99141e-05 -0.000157378 0.0113357)
(1.58747e-05 -0.000160049 0.0113228)
(-1.58728e-05 -0.000160044 0.0113228)
(-4.99187e-05 -0.000157375 0.0113357)
(-8.21605e-05 -0.000154707 0.0113617)
(-0.000114628 -0.000146745 0.0113986)
(-0.000143981 -0.000143985 0.011443)
(0.000124421 0.000124407 0.0115961)
(9.93923e-05 0.00013116 0.0115621)
(7.17422e-05 0.000138839 0.0115305)
(4.34194e-05 0.000142806 0.0115079)
(1.39219e-05 0.000145668 0.0114967)
(-1.39225e-05 0.000145669 0.0114967)
(-4.34133e-05 0.000142807 0.0115079)
(-7.17423e-05 0.000138842 0.0115305)
(-9.93916e-05 0.000131172 0.0115621)
(-0.00012441 0.000124413 0.0115961)
(0.000131166 9.9391e-05 0.0115622)
(0.000102158 0.000102141 0.0115173)
(7.26369e-05 0.00010712 0.0114833)
(4.40425e-05 0.000109139 0.0114603)
(1.4209e-05 0.000110846 0.0114489)
(-1.42113e-05 0.000110838 0.0114489)
(-4.40316e-05 0.00010915 0.0114603)
(-7.26266e-05 0.000107124 0.0114833)
(-0.00010215 0.000102155 0.0115173)
(-0.000131151 9.93869e-05 0.0115621)
(0.000138845 7.17247e-05 0.0115305)
(0.000107124 7.26259e-05 0.0114833)
(7.74965e-05 7.7491e-05 0.0114486)
(4.63301e-05 7.90422e-05 0.0114254)
(1.5429e-05 8.05441e-05 0.0114139)
(-1.54199e-05 8.05397e-05 0.0114139)
(-4.63356e-05 7.90264e-05 0.0114254)
(-7.74865e-05 7.75001e-05 0.0114486)
(-0.000107125 7.26324e-05 0.0114833)
(-0.000138846 7.17323e-05 0.0115305)
(0.000142813 4.34174e-05 0.0115079)
(0.000109154 4.40329e-05 0.0114603)
(7.90307e-05 4.63372e-05 0.0114254)
(4.7177e-05 4.71609e-05 0.0114021)
(1.5786e-05 4.78807e-05 0.0113903)
(-1.57726e-05 4.78907e-05 0.0113903)
(-4.71692e-05 4.71571e-05 0.011402)
(-7.90281e-05 4.63308e-05 0.0114254)
(-0.00010915 4.40363e-05 0.0114603)
(-0.000142803 4.34239e-05 0.0115079)
(0.000145678 1.39177e-05 0.0114967)
(0.000110841 1.42121e-05 0.0114489)
(8.05445e-05 1.54151e-05 0.0114139)
(4.78966e-05 1.57908e-05 0.0113904)
(1.61412e-05 1.61263e-05 0.0113786)
(-1.61257e-05 1.61356e-05 0.0113786)
(-4.7885e-05 1.57929e-05 0.0113903)
(-8.05473e-05 1.54212e-05 0.0114139)
(-0.000110843 1.42168e-05 0.0114489)
(-0.00014568 1.39188e-05 0.0114967)
(0.000145675 -1.39186e-05 0.0114967)
(0.000110846 -1.42098e-05 0.0114489)
(8.05481e-05 -1.54211e-05 0.0114139)
(4.78934e-05 -1.57915e-05 0.0113903)
(1.61359e-05 -1.61475e-05 0.0113786)
(-1.61389e-05 -1.61365e-05 0.0113786)
(-4.78836e-05 -1.57902e-05 0.0113904)
(-8.05507e-05 -1.5423e-05 0.0114139)
(-0.000110832 -1.42113e-05 0.0114489)
(-0.000145675 -1.39246e-05 0.0114967)
(0.00014281 -4.34211e-05 0.0115079)
(0.000109148 -4.40356e-05 0.0114603)
(7.90323e-05 -4.63292e-05 0.0114254)
(4.71728e-05 -4.71669e-05 0.011402)
(1.57908e-05 -4.78884e-05 0.0113903)
(-1.57862e-05 -4.78851e-05 0.0113903)
(-4.71672e-05 -4.71665e-05 0.011402)
(-7.90286e-05 -4.63343e-05 0.0114254)
(-0.00010914 -4.40389e-05 0.0114603)
(-0.000142806 -4.34214e-05 0.0115079)
(0.00013885 -7.17287e-05 0.0115306)
(0.000107119 -7.26309e-05 0.0114833)
(7.75014e-05 -7.74995e-05 0.0114487)
(4.63338e-05 -7.90461e-05 0.0114254)
(1.54197e-05 -8.05485e-05 0.0114139)
(-1.54227e-05 -8.05464e-05 0.0114139)
(-4.63271e-05 -7.90341e-05 0.0114254)
(-7.74882e-05 -7.74993e-05 0.0114486)
(-0.000107112 -7.26329e-05 0.0114833)
(-0.000138844 -7.17326e-05 0.0115305)
(0.000131161 -9.93917e-05 0.0115621)
(0.000102159 -0.000102152 0.0115173)
(7.26393e-05 -0.00010713 0.0114834)
(4.40373e-05 -0.000109133 0.0114603)
(1.42129e-05 -0.000110837 0.0114489)
(-1.42037e-05 -0.000110848 0.0114489)
(-4.40312e-05 -0.000109148 0.0114603)
(-7.26275e-05 -0.000107127 0.0114833)
(-0.000102154 -0.000102157 0.0115173)
(-0.000131167 -9.9392e-05 0.0115621)
(0.000124417 -0.000124419 0.0115961)