/*--------------------------------*- C++ -*----------------------------------*\
| =========                 |                                                 |
| \\      /  F ield         | OpenFOAM: The Open Source CFD Toolbox           |
|  \\    /   O peration     | Version:  2406                                  |
|   \\  /    A nd           | Website:  www.openfoam.com                      |
|    \\/     M anipulation  |                                                 |
\*---------------------------------------------------------------------------*/
FoamFile
{
    version     2.0;
    format      ascii;
    arch        "LSB;label=32;scalar=64";
    class       surfaceScalarField;
    location    "2";
    object      phi;
}
// * * * * * * * * * * * * * * * * * * * * * * * * * * * * * * * * * * * * * //

dimensions      [0 3 -1 0 0 0 0];

oriented        oriented;

internalField   nonuniform List<scalar> 
43700
(
1.84562e-08
1.84549e-08
4.79352e-07
-2.31258e-08
-2.31206e-08
1.37506e-08
1.69872e-08
5.18593e-07
-2.1485e-08
9.12349e-09
1.57504e-08
5.48428e-07
-2.01262e-08
4.5621e-09
1.50384e-08
5.68545e-07
-1.9311e-08
-7.67778e-12
1.46152e-08
5.78652e-07
-1.87677e-08
-4.57863e-09
1.46157e-08
5.78652e-07
-1.87668e-08
-9.13855e-09
1.50439e-08
5.68543e-07
-1.93113e-08
-1.37597e-08
1.57572e-08
5.48424e-07
-2.01271e-08
-1.84684e-08
1.69916e-08
5.18589e-07
-2.14903e-08
1.84598e-08
4.79347e-07
-2.31274e-08
-2.31271e-08
1.69891e-08
1.37447e-08
5.18593e-07
-2.14905e-08
1.25798e-08
1.25764e-08
5.54664e-07
8.25958e-09
1.162e-08
5.82143e-07
4.10433e-09
1.10171e-08
6.00676e-07
-6.61237e-12
1.06909e-08
6.10006e-07
-4.11592e-09
1.06931e-08
6.10006e-07
-8.27061e-09
1.10195e-08
6.00673e-07
-1.25903e-08
1.16228e-08
5.8214e-07
-1.69975e-08
1.25844e-08
5.54659e-07
1.37512e-08
5.18589e-07
-2.14951e-08
1.57567e-08
9.12202e-09
5.48426e-07
-2.01286e-08
1.1624e-08
8.25403e-09
5.82144e-07
7.62315e-09
7.61843e-09
6.07868e-07
3.78091e-09
7.20212e-09
6.25217e-07
-3.82757e-12
6.99116e-09
6.33965e-07
-3.79343e-09
6.99131e-09
6.33964e-07
-7.63555e-09
7.20641e-09
6.25219e-07
-1.16301e-08
7.62745e-09
6.07866e-07
-1.5764e-08
8.26326e-09
5.8214e-07
9.12949e-09
5.48423e-07
-2.01318e-08
1.50418e-08
4.56065e-09
5.68543e-07
-1.93128e-08
1.1022e-08
4.10212e-09
6.00674e-07
7.20689e-09
3.77739e-09
6.25219e-07
3.56306e-09
3.56044e-09
6.41789e-07
-3.15061e-12
3.45465e-09
6.50145e-07
-3.57107e-09
3.4546e-09
6.50146e-07
-7.21329e-09
3.56487e-09
6.41789e-07
-1.1027e-08
3.78565e-09
6.25218e-07
-1.5048e-08
4.1106e-09
6.00671e-07
4.57088e-09
5.6854e-07
-1.93158e-08
1.46174e-08
-1.13669e-11
5.7865e-07
-1.87707e-08
1.06945e-08
-1.01049e-11
6.10006e-07
6.99626e-09
-8.70419e-12
6.33962e-07
3.45766e-09
-6.70803e-12
6.50146e-07
-3.28373e-12
-5.9737e-12
6.58309e-07
-3.46118e-09
-3.69497e-12
6.58309e-07
-7.00011e-09
-3.16584e-12
6.50146e-07
-1.07e-08
-1.96311e-12
6.33962e-07
-1.46215e-08
-2.46563e-13
6.10004e-07
-7.60556e-13
5.7865e-07
-1.87731e-08
1.46193e-08
-4.57778e-09
5.78649e-07
-1.87696e-08
1.06949e-08
-4.11922e-09
6.10004e-07
6.99731e-09
-3.79376e-09
6.33963e-07
3.45907e-09
-3.57221e-09
6.50145e-07
-4.33336e-13
-3.46439e-09
6.5831e-07
-3.46061e-09
-3.46357e-09
6.58309e-07
-6.99763e-09
-3.56842e-09
6.50147e-07
-1.06984e-08
-3.79017e-09
6.33962e-07
-1.46205e-08
-4.1108e-09
6.10005e-07
-4.56966e-09
5.7865e-07
-1.87707e-08
1.50454e-08
-9.13787e-09
5.68541e-07
-1.93156e-08
1.10235e-08
-8.27328e-09
6.00671e-07
7.2115e-09
-7.63591e-09
6.25217e-07
3.56691e-09
-7.2162e-09
6.41788e-07
1.12015e-12
-7.00077e-09
6.50144e-07
-3.56638e-09
-7.00039e-09
6.50146e-07
-7.21268e-09
-7.21276e-09
6.41787e-07
-1.10236e-08
-7.62963e-09
6.25218e-07
-1.50464e-08
-8.26598e-09
6.00672e-07
-9.13102e-09
5.68541e-07
-1.93167e-08
1.5758e-08
-1.37601e-08
5.48423e-07
-2.01288e-08
1.16275e-08
-1.25895e-08
5.82139e-07
7.6306e-09
-1.16306e-08
6.07864e-07
3.78875e-09
-1.10273e-08
6.25216e-07
1.02973e-12
-1.06989e-08
6.33962e-07
-3.78556e-09
-1.06984e-08
6.33962e-07
-7.6295e-09
-1.10252e-08
6.25219e-07
-1.16253e-08
-1.16255e-08
6.07866e-07
-1.57585e-08
-1.25864e-08
5.82142e-07
-1.37542e-08
5.48425e-07
-2.01297e-08
1.69931e-08
-1.84648e-08
5.18588e-07
-2.14914e-08
1.25857e-08
-1.69961e-08
5.54658e-07
8.26615e-09
-1.57617e-08
5.82139e-07
4.1149e-09
-1.50465e-08
6.00671e-07
1.28147e-12
-1.46232e-08
6.10004e-07
-4.1094e-09
-1.46202e-08
6.10005e-07
-8.26423e-09
-1.50466e-08
6.00672e-07
-1.25845e-08
-1.57603e-08
5.82142e-07
-1.69931e-08
-1.69954e-08
5.54661e-07
-1.84622e-08
5.18592e-07
-2.14897e-08
1.84606e-08
4.79347e-07
-2.3127e-08
-2.31265e-08
1.3753e-08
5.1859e-07
-2.14955e-08
9.13196e-09
5.48422e-07
-2.01322e-08
4.57089e-09
5.68541e-07
-1.93177e-08
3.08174e-12
5.78649e-07
-1.87716e-08
-4.57087e-09
5.78651e-07
-1.87731e-08
-9.13205e-09
5.68542e-07
-1.93156e-08
-1.37533e-08
5.48425e-07
-2.01284e-08
-1.84634e-08
5.18589e-07
-2.14955e-08
4.7935e-07
-2.31326e-08
-2.31226e-08
2.93044e-08
2.93105e-08
4.90597e-07
-3.49288e-08
-3.49324e-08
2.1318e-08
2.45343e-08
5.29951e-07
-2.79058e-08
1.42138e-08
2.26814e-08
5.59853e-07
-2.70015e-08
7.08391e-09
2.12058e-08
5.80005e-07
-2.55343e-08
8.4908e-12
2.05333e-08
5.90116e-07
-2.49224e-08
-7.06542e-09
2.05332e-08
5.90115e-07
-2.49222e-08
-1.41955e-08
2.11999e-08
5.80005e-07
-2.55323e-08
-2.13037e-08
2.26753e-08
5.59855e-07
-2.69981e-08
-2.92947e-08
2.45247e-08
5.29956e-07
-2.78993e-08
2.93041e-08
4.906e-07
-3.49229e-08
-3.49294e-08
2.45253e-08
2.1325e-08
5.29952e-07
-2.78979e-08
1.8847e-08
1.88551e-08
5.66024e-07
1.28644e-08
1.73775e-08
5.93433e-07
6.49439e-09
1.63291e-08
6.11921e-07
6.35259e-12
1.581e-08
6.21217e-07
-6.48153e-09
1.58083e-08
6.21216e-07
-1.28504e-08
1.63215e-08
6.11922e-07
-1.88362e-08
1.73677e-08
5.93434e-07
-2.45218e-08
1.88413e-08
5.66028e-07
2.13147e-08
5.29957e-07
-2.78973e-08
2.26746e-08
1.42194e-08
5.59854e-07
-2.69958e-08
1.73696e-08
1.2871e-08
5.93434e-07
1.17883e-08
1.17954e-08
6.19031e-07
5.94948e-09
1.10868e-08
6.36296e-07
3.59141e-12
1.07284e-08
6.4499e-07
-5.94054e-09
1.0727e-08
6.44991e-07
-1.1777e-08
1.10811e-08
6.36295e-07
-1.73596e-08
1.17849e-08
6.19032e-07
-2.26701e-08
1.28539e-08
5.93435e-07
1.42042e-08
5.59857e-07
-2.69938e-08
2.11984e-08
7.08926e-09
5.80005e-07
-2.55295e-08
1.6321e-08
6.50032e-09
6.11921e-07
1.10801e-08
5.95667e-09
6.36296e-07
5.59861e-09
5.60512e-09
6.52752e-07
1.58104e-12
5.42348e-09
6.61048e-07
-5.59492e-09
5.42188e-09
6.61048e-07
-1.1076e-08
5.59977e-09
6.52752e-07
-1.63176e-08
5.94621e-09
6.36295e-07
-2.11962e-08
6.48734e-09
6.1192e-07
7.07144e-09
5.80007e-07
-2.55317e-08
2.05267e-08
1.3759e-11
5.90115e-07
-2.49176e-08
1.58049e-08
1.31975e-11
6.21218e-07
1.07215e-08
1.07742e-11
6.44989e-07
5.41743e-09
5.81048e-12
6.61048e-07
6.18361e-13
4.9395e-12
6.69145e-07
-5.41703e-09
4.37071e-12
6.69144e-07
-1.07204e-08
2.38041e-12
6.61047e-07
-1.58029e-08
-1.02618e-13
6.44991e-07
-2.05289e-08
-2.58381e-12
6.21217e-07
-1.85196e-12
5.90116e-07
-2.49182e-08
2.05265e-08
-7.06208e-09
5.90116e-07
-2.4916e-08
1.58038e-08
-6.47621e-09
6.21218e-07
1.07186e-08
-5.93718e-09
6.44991e-07
5.41577e-09
-5.5901e-09
6.61047e-07
-1.67037e-12
-5.41377e-09
6.69144e-07
-5.41933e-09
-5.41498e-09
6.69143e-07
-1.07239e-08
-5.59644e-09
6.61047e-07
-1.58057e-08
-5.94492e-09
6.44989e-07
-2.05291e-08
-6.48777e-09
6.21215e-07
-7.07705e-09
5.90116e-07
-2.49201e-08
2.11948e-08
-1.41948e-08
5.80008e-07
-2.55282e-08
1.63144e-08
-1.28475e-08
6.1192e-07
1.10748e-08
-1.17741e-08
6.36296e-07
5.59298e-09
-1.10724e-08
6.52751e-07
-3.8077e-12
-1.07179e-08
6.61046e-07
-5.59925e-09
-1.0719e-08
6.61047e-07
-1.108e-08
-1.10779e-08
6.52751e-07
-1.63209e-08
-1.17844e-08
6.36297e-07
-2.1199e-08
-1.28568e-08
6.11919e-07
-1.42055e-08
5.80004e-07
-2.55297e-08
2.26704e-08
-2.13046e-08
5.59857e-07
-2.69948e-08
1.73614e-08
-1.88357e-08
5.93435e-07
1.17774e-08
-1.7361e-08
6.19033e-07
5.93967e-09
-1.63147e-08
6.36297e-07
-5.57055e-12
-1.5801e-08
6.4499e-07
-5.94939e-09
-1.58025e-08
6.4499e-07
-1.17875e-08
-1.63197e-08
6.36296e-07
-1.73688e-08
-1.73665e-08
6.1903e-07
-2.2676e-08
-1.88415e-08
5.93433e-07
-2.13119e-08
5.59853e-07
-2.69996e-08
2.45201e-08
-2.92988e-08
5.29956e-07
-2.78988e-08
1.88379e-08
-2.4521e-08
5.66028e-07
1.28507e-08
-2.26695e-08
5.93435e-07
6.48055e-09
-2.11952e-08
6.11921e-07
-7.18233e-12
-2.05273e-08
6.21216e-07
-6.49428e-09
-2.05287e-08
6.21216e-07
-1.28596e-08
-2.11969e-08
6.11917e-07
-1.88443e-08
-2.26737e-08
5.93432e-07
-2.45252e-08
-2.4523e-08
5.66023e-07
-2.92992e-08
5.29952e-07
-2.78984e-08
2.93002e-08
4.90601e-07
-3.49264e-08
-3.49288e-08
2.13108e-08
5.29958e-07
-2.78974e-08
1.41981e-08
5.59856e-07
-2.69953e-08
7.06671e-09
5.80007e-07
-2.55297e-08
-6.48206e-12
5.90113e-07
-2.49182e-08
-7.07884e-09
5.90114e-07
-2.49183e-08
-1.4208e-08
5.80003e-07
-2.5531e-08
-2.13144e-08
5.59853e-07
-2.69962e-08
-2.93037e-08
5.29953e-07
-2.78973e-08
4.90598e-07
-3.4924e-08
-3.49258e-08
3.41187e-08
3.41111e-08
5.02207e-07
-3.99226e-08
-3.99145e-08
2.5357e-08
2.90619e-08
5.42149e-07
-3.25001e-08
1.71369e-08
2.72854e-08
5.72498e-07
-3.17079e-08
8.56753e-09
2.54907e-08
5.92928e-07
-2.98461e-08
-4.7089e-12
2.47786e-08
6.03175e-07
-2.92639e-08
-8.57952e-09
2.47794e-08
6.03174e-07
-2.92649e-08
-1.7149e-08
2.5494e-08
5.92927e-07
-2.98476e-08
-2.53673e-08
2.72917e-08
5.72495e-07
-3.17144e-08
-3.41227e-08
2.90687e-08
5.42146e-07
-3.25051e-08
3.41192e-08
5.02203e-07
-3.99234e-08
-3.99217e-08
2.90678e-08
2.53513e-08
5.42149e-07
-3.2504e-08
2.27072e-08
2.2701e-08
5.78745e-07
1.57115e-08
2.12289e-08
6.06484e-07
7.9728e-09
1.99809e-08
6.25171e-07
-2.93821e-12
1.94192e-08
6.34552e-07
-7.98009e-09
1.94202e-08
6.34551e-07
-1.5719e-08
1.99862e-08
6.25171e-07
-2.27149e-08
2.12377e-08
6.06482e-07
-2.90711e-08
2.27127e-08
5.78743e-07
2.5363e-08
5.42147e-07
-3.25056e-08
2.72897e-08
1.71306e-08
5.72497e-07
-3.17146e-08
2.12356e-08
1.57077e-08
6.06483e-07
1.4591e-08
1.45862e-08
6.3232e-07
7.39815e-09
1.37511e-08
6.49721e-07
-1.60599e-12
1.33371e-08
6.5847e-07
-7.4002e-09
1.33404e-08
6.58472e-07
-1.45956e-08
1.37556e-08
6.4972e-07
-2.12403e-08
1.4594e-08
6.32319e-07
-2.72912e-08
1.57203e-08
6.06482e-07
1.71462e-08
5.72495e-07
-3.17126e-08
2.54939e-08
8.56079e-09
5.92928e-07
-2.9848e-08
1.99856e-08
7.96631e-09
6.25171e-07
1.37555e-08
7.39301e-09
6.4972e-07
6.99709e-09
6.99303e-09
6.66269e-07
1.13317e-12
6.78716e-09
6.74598e-07
-6.99583e-09
6.78796e-09
6.74598e-07
-1.37551e-08
6.99813e-09
6.66269e-07
-1.99856e-08
7.40136e-09
6.4972e-07
-2.54947e-08
7.9785e-09
6.25171e-07
8.5771e-09
5.92928e-07
-2.9847e-08
2.47828e-08
-9.29133e-12
6.03174e-07
-2.92677e-08
1.94238e-08
-8.67832e-12
6.34551e-07
1.33434e-08
-4.68932e-12
6.5847e-07
6.79042e-09
-2.54652e-12
6.74598e-07
2.37097e-12
-8.57584e-13
6.8272e-07
-6.78637e-09
4.60544e-13
6.82721e-07
-1.3341e-08
5.82731e-13
6.74599e-07
-1.94213e-08
4.08138e-12
6.5847e-07
-2.47802e-08
3.63e-12
6.34551e-07
5.81266e-12
6.03174e-07
-2.92634e-08
2.47819e-08
-8.58415e-09
6.03174e-07
-2.92688e-08
1.94258e-08
-7.98305e-09
6.34551e-07
1.33441e-08
-7.40445e-09
6.58471e-07
6.79181e-09
-6.99844e-09
6.74598e-07
2.18324e-12
-6.7896e-09
6.82721e-07
-6.78506e-09
-6.78654e-09
6.8272e-07
-1.33384e-08
-6.99553e-09
6.74598e-07
-1.94197e-08
-7.39566e-09
6.5847e-07
-2.47784e-08
-7.97231e-09
6.3455e-07
-8.56857e-09
6.03174e-07
-2.92647e-08
2.54985e-08
-1.71504e-08
5.92928e-07
-2.98515e-08
1.99904e-08
-1.57208e-08
6.2517e-07
1.37612e-08
-1.45966e-08
6.49721e-07
7.00151e-09
-1.37584e-08
6.66269e-07
4.29943e-12
-1.33422e-08
6.74598e-07
-6.9919e-09
-1.33408e-08
6.74599e-07
-1.37503e-08
-1.37531e-08
6.66268e-07
-1.99827e-08
-1.45899e-08
6.49722e-07
-2.54922e-08
-1.57126e-08
6.2517e-07
-1.71388e-08
5.92928e-07
-2.98468e-08
2.72947e-08
-2.53686e-08
5.72494e-07
-3.1716e-08
2.1242e-08
-2.27147e-08
6.06482e-07
1.45995e-08
-2.12394e-08
6.32318e-07
7.40699e-09
-1.99863e-08
6.49721e-07
5.71113e-12
-1.94218e-08
6.58471e-07
-7.39307e-09
-1.94212e-08
6.58472e-07
-1.45875e-08
-1.99826e-08
6.49721e-07
-2.12338e-08
-2.12337e-08
6.32319e-07
-2.72868e-08
-2.2707e-08
6.06483e-07
-2.53593e-08
5.72496e-07
-3.17113e-08
2.90742e-08
-3.41219e-08
5.42146e-07
-3.25063e-08
2.27165e-08
-2.90714e-08
5.78742e-07
1.57236e-08
-2.72921e-08
6.06483e-07
7.98468e-09
-2.54952e-08
6.2517e-07
7.43873e-12
-2.47808e-08
6.3455e-07
-7.96784e-09
-2.47796e-08
6.34552e-07
-1.57096e-08
-2.5493e-08
6.25171e-07
-2.27056e-08
-2.72898e-08
6.06484e-07
-2.90658e-08
-2.90677e-08
5.78743e-07
-3.41176e-08
5.42149e-07
-3.2502e-08
3.4122e-08
5.02203e-07
-3.99226e-08
-3.99235e-08
2.53664e-08
5.42147e-07
-3.25045e-08
1.715e-08
5.72495e-07
-3.17152e-08
8.58192e-09
5.92927e-07
-2.98483e-08
8.65948e-12
6.03172e-07
-2.92656e-08
-8.56387e-09
6.03174e-07
-2.92632e-08
-1.71367e-08
5.9293e-07
-2.98471e-08
-2.53571e-08
5.72497e-07
-3.17103e-08
-3.41174e-08
5.42148e-07
-3.25037e-08
5.02207e-07
-3.99215e-08
-3.99211e-08
3.37638e-08
3.37703e-08
5.1384e-07
-3.95787e-08
-3.95846e-08
2.54398e-08
2.93639e-08
5.54434e-07
-3.33242e-08
1.72611e-08
2.80182e-08
5.85251e-07
-3.25943e-08
8.65308e-09
2.64195e-08
6.05965e-07
-3.08458e-08
4.26658e-12
2.58645e-08
6.16363e-07
-3.04035e-08
-8.64609e-09
2.58636e-08
6.16362e-07
-3.04044e-08
-1.72547e-08
2.64141e-08
6.05966e-07
-3.08436e-08
-2.54313e-08
2.80135e-08
5.85251e-07
-3.25893e-08
-3.37575e-08
2.93545e-08
5.54438e-07
-3.33179e-08
3.37594e-08
5.13844e-07
-3.95776e-08
-3.95808e-08
2.93576e-08
2.54456e-08
5.54436e-07
-3.33201e-08
2.294e-08
2.29455e-08
5.91584e-07
1.58791e-08
2.18293e-08
6.19734e-07
8.06545e-09
2.07254e-08
6.38679e-07
6.45413e-13
2.0296e-08
6.48185e-07
-8.06448e-09
2.02942e-08
6.48185e-07
-1.58755e-08
2.072e-08
6.38679e-07
-2.29366e-08
2.18207e-08
6.19735e-07
-2.93579e-08
2.29321e-08
5.91586e-07
2.54308e-08
5.54439e-07
-3.33206e-08
2.80142e-08
1.72652e-08
5.85251e-07
-3.2591e-08
2.18245e-08
1.58826e-08
6.19735e-07
1.50206e-08
1.50249e-08
6.45926e-07
7.6165e-09
1.42952e-08
6.63555e-07
-9.42591e-13
1.397e-08
6.72412e-07
-7.61815e-09
1.3969e-08
6.72414e-07
-1.50209e-08
1.42919e-08
6.63554e-07
-2.18241e-08
1.50179e-08
6.45926e-07
-2.80153e-08
1.58723e-08
6.19733e-07
1.72519e-08
5.85253e-07
-3.25914e-08
2.64157e-08
8.65765e-09
6.05967e-07
-3.08433e-08
2.07203e-08
8.06928e-09
6.38679e-07
1.42912e-08
7.62005e-09
6.63554e-07
7.2724e-09
7.27551e-09
6.80308e-07
-2.80189e-12
7.1098e-09
6.88733e-07
-7.27771e-09
7.11029e-09
6.88734e-07
-1.42963e-08
7.27168e-09
6.80308e-07
-2.07247e-08
7.61339e-09
6.63553e-07
-2.64191e-08
8.05842e-09
6.38679e-07
8.6426e-09
6.05965e-07
-3.08479e-08
2.5861e-08
8.31578e-12
6.16363e-07
-3.04013e-08
2.0292e-08
5.95161e-12
6.48185e-07
1.39673e-08
3.03174e-12
6.72413e-07
7.10666e-09
-4.81929e-13
6.88733e-07
-3.0694e-12
-1.37425e-12
6.96943e-07
-7.11499e-09
-1.2076e-12
6.96945e-07
-1.39735e-08
-3.53157e-12
6.88733e-07
-2.02979e-08
-3.8378e-12
6.72412e-07
-2.58654e-08
-6.68148e-12
6.48184e-07
-6.44325e-12
6.16363e-07
-3.04061e-08
2.58592e-08
-8.64058e-09
6.16363e-07
-3.04006e-08
2.02908e-08
-8.05916e-09
6.48183e-07
1.39653e-08
-7.61443e-09
6.72412e-07
7.10545e-09
-7.27326e-09
6.88733e-07
-5.06944e-12
-7.11223e-09
6.96944e-07
-7.11713e-09
-7.11268e-09
6.96945e-07
-1.39753e-08
-7.27852e-09
6.88732e-07
-2.03001e-08
-7.6206e-09
6.72412e-07
-2.58667e-08
-8.06786e-09
6.48183e-07
-8.65336e-09
6.16362e-07
-3.04058e-08
2.641e-08
-1.72509e-08
6.05967e-07
-3.08401e-08
2.07164e-08
-1.58715e-08
6.38678e-07
1.42874e-08
-1.5018e-08
6.63554e-07
7.26703e-09
-1.42929e-08
6.80308e-07
-5.84111e-12
-1.39707e-08
6.88732e-07
-7.28103e-09
-1.39738e-08
6.88732e-07
-1.42985e-08
-1.42993e-08
6.80307e-07
-2.07278e-08
-1.50263e-08
6.63555e-07
-2.64199e-08
-1.58806e-08
6.38677e-07
-1.72611e-08
6.05965e-07
-3.08474e-08
2.80071e-08
-2.54292e-08
5.85253e-07
-3.25849e-08
2.18153e-08
-2.29331e-08
6.19736e-07
1.50129e-08
-2.18217e-08
6.45925e-07
7.60812e-09
-2.07216e-08
6.63553e-07
-8.09595e-12
-2.02956e-08
6.72413e-07
-7.62618e-09
-2.02974e-08
6.72413e-07
-1.50268e-08
-2.07238e-08
6.63552e-07
-2.18282e-08
-2.18282e-08
6.45925e-07
-2.80184e-08
-2.29418e-08
6.19734e-07
-2.54385e-08
5.8525e-07
-3.25948e-08
2.93497e-08
-3.37578e-08
5.54439e-07
-3.33141e-08
2.29274e-08
-2.93555e-08
5.91585e-07
1.58666e-08
-2.80129e-08
6.19735e-07
8.05332e-09
-2.64156e-08
6.38679e-07
-1.00037e-11
-2.58633e-08
6.48183e-07
-8.07192e-09
-2.5865e-08
6.48182e-07
-1.58846e-08
-2.642e-08
6.38675e-07
-2.29437e-08
-2.80173e-08
6.19732e-07
-2.93608e-08
-2.93604e-08
5.91582e-07
-3.37625e-08
5.54435e-07
-3.33236e-08
3.37553e-08
5.13845e-07
-3.95784e-08
-3.95778e-08
2.54267e-08
5.54439e-07
-3.33185e-08
1.72475e-08
5.85253e-07
-3.25895e-08
8.63828e-09
6.05967e-07
-3.08454e-08
-1.27252e-11
6.16362e-07
-3.04053e-08
-8.65972e-09
6.16362e-07
-3.04057e-08
-1.72666e-08
6.05965e-07
-3.08479e-08
-2.54427e-08
5.85249e-07
-3.25941e-08
-3.37654e-08
5.54433e-07
-3.33231e-08
5.1384e-07
-3.9582e-08
-3.95809e-08
3.08588e-08
3.08541e-08
5.24169e-07
-3.60219e-08
-3.60189e-08
2.37198e-08
2.74819e-08
5.65625e-07
-3.15359e-08
1.61924e-08
2.643e-08
5.97066e-07
-3.07163e-08
8.15222e-09
2.50736e-08
6.18162e-07
-2.92319e-08
-1.85417e-12
2.46369e-08
6.28756e-07
-2.88773e-08
-8.15254e-09
2.46389e-08
6.28755e-07
-2.88779e-08
-1.61928e-08
2.50771e-08
6.18162e-07
-2.92344e-08
-2.37227e-08
2.64346e-08
5.97067e-07
-3.07212e-08
-3.08609e-08
2.74897e-08
5.65627e-07
-3.1544e-08
3.08626e-08
5.24169e-07
-3.60246e-08
-3.60235e-08
2.74868e-08
2.37181e-08
5.65626e-07
-3.1539e-08
2.15589e-08
2.15552e-08
6.03437e-07
1.49218e-08
2.06862e-08
6.32114e-07
7.59189e-09
1.96968e-08
6.51386e-07
2.08424e-12
1.93547e-08
6.61059e-07
-7.58989e-09
1.9354e-08
6.61059e-07
-1.49192e-08
1.96996e-08
6.51386e-07
-2.15572e-08
2.06903e-08
6.32115e-07
-2.74841e-08
2.15636e-08
6.03439e-07
2.37274e-08
5.65628e-07
-3.1535e-08
2.64325e-08
1.61897e-08
5.97067e-07
-3.0719e-08
2.0688e-08
1.49186e-08
6.32116e-07
1.42783e-08
1.42778e-08
6.58744e-07
7.25173e-09
1.3622e-08
6.76657e-07
1.78474e-12
1.33599e-08
6.85659e-07
-7.24823e-09
1.33607e-08
6.85657e-07
-1.42739e-08
1.36251e-08
6.76656e-07
-2.06841e-08
1.42818e-08
6.58744e-07
-2.64289e-08
1.49272e-08
6.32115e-07
1.61993e-08
5.97068e-07
-3.07159e-08
2.50745e-08
8.14916e-09
6.18162e-07
-2.92336e-08
1.96995e-08
7.5904e-09
6.51386e-07
1.36237e-08
7.2512e-09
6.76657e-07
6.94291e-09
6.94171e-09
6.9367e-07
4.26575e-12
6.80868e-09
7.02225e-07
-6.93436e-09
6.81089e-09
7.02224e-07
-1.36176e-08
6.94326e-09
6.9367e-07
-1.9693e-08
7.25569e-09
6.76655e-07
-2.50699e-08
7.59722e-09
6.51388e-07
8.15905e-09
6.18162e-07
-2.92271e-08
2.46392e-08
-4.772e-12
6.28756e-07
-2.88799e-08
1.93554e-08
-2.16132e-12
6.6106e-07
1.33617e-08
9.23488e-13
6.85659e-07
6.80953e-09
2.49397e-12
7.02224e-07
4.43507e-12
4.28468e-12
7.10556e-07
-6.80152e-09
4.66357e-12
7.10557e-07
-1.33535e-08
4.61271e-12
7.02223e-07
-1.93477e-08
5.84248e-12
6.85658e-07
-2.46323e-08
6.796e-12
6.61059e-07
6.9361e-12
6.28757e-07
-2.88734e-08
2.46405e-08
-8.15815e-09
6.28757e-07
-2.88793e-08
1.93583e-08
-7.59274e-09
6.61059e-07
1.33632e-08
-7.25033e-09
6.85659e-07
6.81148e-09
-6.93743e-09
7.02225e-07
5.24185e-12
-6.80288e-09
7.10557e-07
-6.8024e-09
-6.80267e-09
7.10558e-07
-1.33531e-08
-6.93319e-09
7.02224e-07
-1.93472e-08
-7.24458e-09
6.85659e-07
-2.46318e-08
-7.58491e-09
6.61058e-07
-8.14631e-09
6.28756e-07
-2.88733e-08
2.50804e-08
-1.61972e-08
6.18163e-07
-2.92367e-08
1.97017e-08
-1.49237e-08
6.51387e-07
1.36282e-08
-1.42791e-08
6.76658e-07
6.9457e-09
-1.36213e-08
6.93672e-07
5.53001e-12
-1.33564e-08
7.02223e-07
-6.9331e-09
-1.33533e-08
7.02224e-07
-1.36151e-08
-1.3616e-08
6.9367e-07
-1.9691e-08
-1.42715e-08
6.76657e-07
-2.50691e-08
-1.4915e-08
6.51386e-07
-1.61871e-08
6.18161e-07
-2.92281e-08
2.64385e-08
-2.37265e-08
5.97067e-07
-3.07245e-08
2.06936e-08
-2.1561e-08
6.32117e-07
1.42857e-08
-2.06869e-08
6.58745e-07
7.25831e-09
-1.96954e-08
6.76657e-07
7.96938e-12
-1.935e-08
6.85659e-07
-7.24346e-09
-1.9348e-08
6.85659e-07
-1.42699e-08
-1.96914e-08
6.76656e-07
-2.06812e-08
-2.06813e-08
6.58744e-07
-2.64268e-08
-2.15524e-08
6.32115e-07
-2.37159e-08
5.97068e-07
-3.0714e-08
2.74945e-08
-3.08622e-08
5.65627e-07
-3.1547e-08
2.15681e-08
-2.7488e-08
6.03439e-07
1.4931e-08
-2.64323e-08
6.32116e-07
7.60076e-09
-2.50744e-08
6.51387e-07
1.05284e-11
-2.46344e-08
6.61059e-07
-7.58297e-09
-2.46334e-08
6.61059e-07
-1.49137e-08
-2.50701e-08
6.51385e-07
-2.15518e-08
-2.6426e-08
6.32116e-07
-2.74808e-08
-2.74807e-08
6.03439e-07
-3.08548e-08
5.65628e-07
-3.15344e-08
3.08677e-08
5.24169e-07
-3.60256e-08
-3.60287e-08
2.37322e-08
5.65627e-07
-3.15388e-08
1.62039e-08
5.97068e-07
-3.07165e-08
8.16546e-09
6.18161e-07
-2.92313e-08
1.28396e-11
6.28756e-07
-2.88755e-08
-8.14157e-09
6.28757e-07
-2.88729e-08
-1.6182e-08
6.18163e-07
-2.92275e-08
-2.37156e-08
5.97069e-07
-3.07143e-08
-3.08536e-08
5.65627e-07
-3.15359e-08
5.24171e-07
-3.60197e-08
-3.60212e-08
2.73142e-08
2.7318e-08
5.33591e-07
-3.20245e-08
-3.20301e-08
2.12737e-08
2.5335e-08
5.75958e-07
-2.96262e-08
1.45614e-08
2.489e-08
6.0799e-07
-2.91026e-08
7.36172e-09
2.40994e-08
6.29464e-07
-2.82027e-08
2.39968e-13
2.39013e-08
6.40257e-07
-2.80381e-08
-7.36529e-09
2.3898e-08
6.40257e-07
-2.80396e-08
-1.45623e-08
2.40978e-08
6.29463e-07
-2.82014e-08
-2.12741e-08
2.48858e-08
6.0799e-07
-2.90976e-08
-2.73138e-08
2.53305e-08
5.75959e-07
-2.96225e-08
2.73102e-08
5.33593e-07
-3.20258e-08
-3.20217e-08
2.53336e-08
2.1277e-08
5.75958e-07
-2.96256e-08
1.98049e-08
1.98052e-08
6.14499e-07
1.36394e-08
1.94422e-08
6.43727e-07
6.93542e-09
1.88322e-08
6.63355e-07
-2.76825e-12
1.86809e-08
6.73213e-07
-6.93974e-09
1.86791e-08
6.73214e-07
-1.36428e-08
1.88318e-08
6.63355e-07
-1.98056e-08
1.94392e-08
6.43728e-07
-2.53339e-08
1.98002e-08
6.14498e-07
2.12669e-08
5.7596e-07
-2.96267e-08
2.48879e-08
1.45638e-08
6.0799e-07
-2.90998e-08
1.94406e-08
1.36393e-08
6.43728e-07
1.33789e-08
1.33816e-08
6.70864e-07
6.7879e-09
1.29751e-08
6.89106e-07
-2.20982e-12
1.28506e-08
6.98276e-07
-6.79264e-09
1.28498e-08
6.98276e-07
-1.3385e-08
1.29711e-08
6.89108e-07
-1.94453e-08
1.33784e-08
6.70865e-07
-2.4893e-08
1.36347e-08
6.43728e-07
1.45546e-08
6.0799e-07
-2.91053e-08
2.40978e-08
7.36477e-09
6.29464e-07
-2.82029e-08
1.88326e-08
6.93729e-09
6.63355e-07
1.29728e-08
6.78856e-09
6.89107e-07
6.59038e-09
6.59204e-09
7.06431e-07
-3.05034e-12
6.5285e-09
7.1514e-07
-6.59808e-09
6.52838e-09
7.15141e-07
-1.29791e-08
6.58978e-09
7.06432e-07
-1.88392e-08
6.78499e-09
6.89107e-07
-2.41034e-08
6.93215e-09
6.63355e-07
7.35686e-09
6.29463e-07
-2.82063e-08
2.38974e-08
1.34622e-12
6.40258e-07
-2.80379e-08
1.86795e-08
2.20768e-12
6.73215e-07
1.285e-08
-2.39001e-12
6.98277e-07
6.52741e-09
-4.73529e-12
7.1514e-07
-4.42333e-12
-4.98371e-12
7.23621e-07
-6.53626e-09
-4.13264e-12
7.23622e-07
-1.28578e-08
-4.05705e-12
7.1514e-07
-1.86878e-08
-5.37405e-12
6.98276e-07
-2.39053e-08
-6.0133e-12
6.73214e-07
-7.38483e-12
6.40258e-07
-2.80433e-08
2.38976e-08
-7.36162e-09
6.40258e-07
-2.8038e-08
1.86779e-08
-6.93784e-09
6.73215e-07
1.28479e-08
-6.79132e-09
6.98275e-07
6.5262e-09
-6.59703e-09
7.1514e-07
-5.67472e-12
-6.53568e-09
7.23622e-07
-6.5361e-09
-6.53672e-09
7.23622e-07
-1.28589e-08
-6.60109e-09
7.1514e-07
-1.8688e-08
-6.79624e-09
6.98276e-07
-2.39063e-08
-6.94298e-09
6.73214e-07
-7.36934e-09
6.40258e-07
-2.80428e-08
2.40943e-08
-1.45594e-08
6.29464e-07
-2.81999e-08
1.88288e-08
-1.36393e-08
6.63355e-07
1.297e-08
-1.33815e-08
6.89107e-07
6.58928e-09
-1.29777e-08
7.06431e-07
-6.22035e-12
-1.28569e-08
7.1514e-07
-6.60095e-09
-1.28568e-08
7.15139e-07
-1.29809e-08
-1.2981e-08
7.06432e-07
-1.88391e-08
-1.33881e-08
6.89107e-07
-2.41051e-08
-1.36472e-08
6.63354e-07
-1.45684e-08
6.29465e-07
-2.82073e-08
2.48827e-08
-2.12696e-08
6.07989e-07
-2.90943e-08
1.94354e-08
-1.98036e-08
6.43728e-07
1.33749e-08
-1.94429e-08
6.70864e-07
6.7824e-09
-1.88352e-08
6.89106e-07
-7.00909e-12
-1.86839e-08
6.98276e-07
-6.79787e-09
-1.86877e-08
6.98276e-07
-1.33873e-08
-1.88389e-08
6.89106e-07
-1.94476e-08
-1.94488e-08
6.70864e-07
-2.48923e-08
-1.98098e-08
6.43727e-07
-2.12804e-08
6.0799e-07
-2.91042e-08
2.53258e-08
-2.73111e-08
5.75959e-07
-2.96164e-08
1.97968e-08
-2.53333e-08
6.14499e-07
1.3632e-08
-2.489e-08
6.43728e-07
6.92859e-09
-2.41007e-08
6.63355e-07
-9.41634e-12
-2.39036e-08
6.73215e-07
-6.94496e-09
-2.39049e-08
6.73214e-07
-1.36474e-08
-2.41045e-08
6.63354e-07
-1.9811e-08
-2.48966e-08
6.43727e-07
-2.53394e-08
-2.53405e-08
6.14498e-07
-2.73203e-08
5.75959e-07
-2.96298e-08
2.73053e-08
5.33593e-07
-3.2024e-08
-3.20179e-08
2.12632e-08
5.75959e-07
-2.96258e-08
1.45521e-08
6.07991e-07
-2.91021e-08
7.35218e-09
6.29464e-07
-2.82059e-08
-1.01225e-11
6.40259e-07
-2.80428e-08
-7.37296e-09
6.40257e-07
-2.80448e-08
-1.457e-08
6.29464e-07
-2.82075e-08
-2.12808e-08
6.0799e-07
-2.91064e-08
-2.73195e-08
5.75958e-07
-2.96283e-08
5.33591e-07
-3.20298e-08
-3.20315e-08
2.26883e-08
2.26883e-08
5.41342e-07
-2.65652e-08
-2.65641e-08
1.7936e-08
2.13818e-08
5.84678e-07
-2.53502e-08
1.23121e-08
2.10226e-08
6.17315e-07
-2.47229e-08
6.2476e-09
2.04728e-08
6.39156e-07
-2.41017e-08
2.48482e-12
2.0345e-08
6.50134e-07
-2.39741e-08
-6.24199e-09
2.03455e-08
6.50133e-07
-2.39742e-08
-1.23073e-08
2.04751e-08
6.39156e-07
-2.41025e-08
-1.79351e-08
2.10243e-08
6.17316e-07
-2.47246e-08
-2.26866e-08
2.13855e-08
5.84681e-07
-2.53548e-08
2.26922e-08
5.41344e-07
-2.65636e-08
-2.65675e-08
2.13824e-08
1.79367e-08
5.84679e-07
-2.53522e-08
1.67045e-08
1.67047e-08
6.23853e-07
1.14587e-08
1.64358e-08
6.5356e-07
5.82815e-09
1.59601e-08
6.735e-07
2.50524e-12
1.58581e-08
6.83523e-07
-5.82064e-09
1.58585e-08
6.83523e-07
-1.14524e-08
1.59599e-08
6.735e-07
-1.67003e-08
1.64367e-08
6.53561e-07
-2.13782e-08
1.67061e-08
6.23854e-07
1.79405e-08
5.84682e-07
-2.5347e-08
2.10219e-08
1.23129e-08
6.17315e-07
-2.47225e-08
1.64351e-08
1.14594e-08
6.53559e-07
1.13118e-08
1.13122e-08
6.81113e-07
5.74546e-09
1.09913e-08
6.99642e-07
3.69345e-12
1.09159e-08
7.08961e-07
-5.73881e-09
1.0916e-08
7.08959e-07
-1.13047e-08
1.09902e-08
6.99642e-07
-1.64312e-08
1.13121e-08
6.81114e-07
-2.10169e-08
1.14594e-08
6.53561e-07
1.23143e-08
6.17317e-07
-2.47208e-08
2.04722e-08
6.24686e-09
6.39157e-07
-2.40994e-08
1.59586e-08
5.82727e-09
6.73499e-07
1.09905e-08
5.74652e-09
6.99643e-07
5.58729e-09
5.58767e-09
7.1724e-07
4.64712e-12
5.54832e-09
7.2609e-07
-5.57907e-09
5.54935e-09
7.26089e-07
-1.09836e-08
5.58735e-09
7.17238e-07
-1.59533e-08
5.7472e-09
6.99642e-07
-2.04671e-08
5.82855e-09
6.735e-07
6.2505e-09
6.39158e-07
-2.40959e-08
2.0343e-08
5.34713e-13
6.50134e-07
-2.39718e-08
1.58583e-08
3.20882e-13
6.83524e-07
1.09174e-08
2.30626e-12
7.08962e-07
5.54741e-09
1.55006e-12
7.26091e-07
3.89098e-12
3.47555e-12
7.3471e-07
-5.53984e-09
4.10052e-12
7.3471e-07
-1.09097e-08
3.82486e-12
7.26089e-07
-1.58523e-08
4.75068e-12
7.08961e-07
-2.03367e-08
5.09619e-12
6.83523e-07
3.95996e-12
6.50134e-07
-2.3968e-08
2.03431e-08
-6.24518e-09
6.50134e-07
-2.39724e-08
1.58583e-08
-5.82378e-09
6.83524e-07
1.09166e-08
-5.73917e-09
7.08962e-07
5.54881e-09
-5.58107e-09
7.2609e-07
3.8971e-12
-5.54249e-09
7.3471e-07
-5.54083e-09
-5.5417e-09
7.34711e-07
-1.09091e-08
-5.57803e-09
7.2609e-07
-1.58505e-08
-5.73672e-09
7.08961e-07
-2.03366e-08
-5.81898e-09
6.83524e-07
-6.24098e-09
6.50133e-07
-2.3969e-08
2.0473e-08
-1.23116e-08
6.39158e-07
-2.41012e-08
1.59609e-08
-1.14543e-08
6.735e-07
1.09917e-08
-1.13082e-08
6.99643e-07
5.58891e-09
-1.09853e-08
7.17238e-07
4.65892e-12
-1.09097e-08
7.2609e-07
-5.57799e-09
-1.09082e-08
7.2609e-07
-1.09824e-08
-1.09817e-08
7.17239e-07
-1.59519e-08
-1.13051e-08
6.99642e-07
-2.04672e-08
-1.14505e-08
6.73499e-07
-1.23053e-08
6.39158e-07
-2.4096e-08
2.10251e-08
-1.79388e-08
6.17316e-07
-2.4726e-08
1.64387e-08
-1.67038e-08
6.53562e-07
1.13147e-08
-1.64339e-08
6.81114e-07
5.74783e-09
-1.59559e-08
6.99642e-07
4.45508e-12
-1.58525e-08
7.08961e-07
-5.73678e-09
-1.58517e-08
7.08961e-07
-1.13043e-08
-1.5952e-08
6.99641e-07
-1.6428e-08
-1.64299e-08
6.81113e-07
-2.10176e-08
-1.66973e-08
6.53559e-07
-1.79305e-08
6.17315e-07
-2.47186e-08
2.13869e-08
-2.26913e-08
5.84681e-07
-2.53569e-08
1.67082e-08
-2.13831e-08
6.23855e-07
1.14618e-08
-2.1021e-08
6.53562e-07
5.83041e-09
-2.0469e-08
6.73499e-07
7.38035e-12
-2.03381e-08
6.83523e-07
-5.81773e-09
-2.03368e-08
6.83523e-07
-1.14516e-08
-2.04653e-08
6.73499e-07
-1.66965e-08
-2.10162e-08
6.5356e-07
-2.13774e-08
-2.13747e-08
6.23853e-07
-2.26814e-08
5.8468e-07
-2.53461e-08
2.26957e-08
5.41343e-07
-2.65677e-08
-2.65717e-08
1.79443e-08
5.84681e-07
-2.53519e-08
1.23183e-08
6.17318e-07
-2.47219e-08
6.25423e-09
6.39157e-07
-2.40973e-08
9.15866e-12
6.50134e-07
-2.39694e-08
-6.23628e-09
6.50133e-07
-2.39678e-08
-1.23037e-08
6.39158e-07
-2.40939e-08
-1.79294e-08
6.17315e-07
-2.47163e-08
-2.26834e-08
5.84681e-07
-2.53442e-08
5.41344e-07
-2.65593e-08
-2.65596e-08
2.07071e-08
2.07078e-08
5.48354e-07
-2.42118e-08
-2.42152e-08
1.64851e-08
2.02152e-08
5.92728e-07
-2.40411e-08
1.13493e-08
2.02185e-08
6.25981e-07
-2.37526e-08
5.77758e-09
2.00305e-08
6.48222e-07
-2.35228e-08
-2.37877e-12
2.00368e-08
6.59403e-07
-2.35256e-08
-5.78294e-09
2.00355e-08
6.59403e-07
-2.35266e-08
-1.13581e-08
2.00299e-08
6.48224e-07
-2.35251e-08
-1.649e-08
2.02194e-08
6.25982e-07
-2.37511e-08
-2.07098e-08
2.02177e-08
5.92727e-07
-2.40418e-08
2.07072e-08
5.48355e-07
-2.42166e-08
-2.42118e-08
2.0217e-08
1.64856e-08
5.92727e-07
-2.40424e-08
1.5788e-08
1.57855e-08
6.32714e-07
1.07971e-08
1.5803e-08
6.62965e-07
5.48537e-09
1.55795e-08
6.8326e-07
-2.03439e-12
1.55779e-08
6.93468e-07
-5.49176e-09
1.55779e-08
6.9347e-07
-1.08021e-08
1.55812e-08
6.83262e-07
-1.57908e-08
1.58056e-08
6.62964e-07
-2.02194e-08
1.5788e-08
6.32713e-07
1.64854e-08
5.92728e-07
-2.40438e-08
2.02207e-08
1.1351e-08
6.25982e-07
-2.37531e-08
1.58039e-08
1.07962e-08
6.62964e-07
1.08484e-08
1.08485e-08
6.91023e-07
5.50357e-09
1.0686e-08
7.09877e-07
-7.53915e-13
1.06839e-08
7.19361e-07
-5.51031e-09
1.06828e-08
7.19361e-07
-1.08533e-08
1.06867e-08
7.0988e-07
-1.58094e-08
1.08498e-08
6.91025e-07
-2.02245e-08
1.07994e-08
6.62965e-07
1.1354e-08
6.25981e-07
-2.37545e-08
2.00317e-08
5.77672e-09
6.48224e-07
-2.35259e-08
1.55797e-08
5.48495e-09
6.83261e-07
1.06858e-08
5.50431e-09
7.09879e-07
5.41776e-09
5.41725e-09
7.27776e-07
-9.16942e-13
5.41299e-09
7.36778e-07
-5.42112e-09
5.41347e-09
7.36778e-07
-1.06909e-08
5.41729e-09
7.27776e-07
-1.55838e-08