/*--------------------------------*- C++ -*----------------------------------*\
| =========                 |                                                 |
| \\      /  F ield         | OpenFOAM: The Open Source CFD Toolbox           |
|  \\    /   O peration     | Version:  2406                                  |
|   \\  /    A nd           | Website:  www.openfoam.com                      |
|    \\/     M anipulation  |                                                 |
\*---------------------------------------------------------------------------*/
FoamFile
{
    version     2.0;
    format      ascii;
    arch        "LSB;label=32;scalar=64";
    class       volVectorField;
    location    "2";
    object      U;
}
// * * * * * * * * * * * * * * * * * * * * * * * * * * * * * * * * * * * * * //

dimensions      [0 1 -1 0 0 0 0];

internalField   nonuniform List<vector> 
15000
(
(0.000147297 0.000147261 0.00997644)
(0.000110101 0.000138436 0.00996666)
(7.57663e-05 0.000126699 0.00996127)
(4.46331e-05 0.000119645 0.00995771)
(1.48296e-05 0.000115313 0.00995587)
(-1.49259e-05 0.000115311 0.00995585)
(-4.47347e-05 0.000119655 0.00995758)
(-7.58478e-05 0.000126712 0.009961)
(-0.00011017 0.000138451 0.00996627)
(-0.000147349 0.000147285 0.00997588)
(0.000138473 0.000110066 0.00996662)
(9.83605e-05 9.83345e-05 0.00995303)
(6.78883e-05 9.0375e-05 0.00994729)
(3.97392e-05 8.52266e-05 0.00994497)
(1.30118e-05 8.2396e-05 0.00994408)
(-1.30953e-05 8.24e-05 0.00994408)
(-3.98069e-05 8.52562e-05 0.0099449)
(-6.79561e-05 9.04043e-05 0.0099472)
(-9.84167e-05 9.83686e-05 0.0099528)
(-0.000138507 0.000110102 0.00996632)
(0.000126742 7.57309e-05 0.00996115)
(9.04183e-05 6.7849e-05 0.00994729)
(6.19233e-05 6.18967e-05 0.00994261)
(3.61531e-05 5.7958e-05 0.00994142)
(1.18113e-05 5.59582e-05 0.00994132)
(-1.1865e-05 5.59699e-05 0.00994122)
(-3.6219e-05 5.79817e-05 0.00994141)
(-6.19964e-05 6.19374e-05 0.00994254)
(-9.04595e-05 6.79048e-05 0.00994722)
(-0.000126767 7.57804e-05 0.00996105)
(0.000119673 4.46135e-05 0.00995763)
(8.52694e-05 3.97105e-05 0.0099449)
(5.7988e-05 3.61181e-05 0.00994144)
(3.37025e-05 3.36758e-05 0.00994114)
(1.09871e-05 3.24593e-05 0.00994128)
(-1.10236e-05 3.24601e-05 0.00994122)
(-3.3747e-05 3.36954e-05 0.00994101)
(-5.80269e-05 3.61624e-05 0.00994142)
(-8.53076e-05 3.97665e-05 0.00994493)
(-0.000119684 4.46739e-05 0.00995766)
(0.000115341 1.47997e-05 0.00995581)
(8.24259e-05 1.29861e-05 0.00994406)
(5.59928e-05 1.17793e-05 0.00994126)
(3.2487e-05 1.09652e-05 0.0099413)
(1.05943e-05 1.05782e-05 0.00994161)
(-1.06211e-05 1.05854e-05 0.00994159)
(-3.25115e-05 1.0989e-05 0.00994126)
(-5.60221e-05 1.18257e-05 0.00994129)
(-8.24555e-05 1.30418e-05 0.00994413)
(-0.000115353 1.48681e-05 0.00995598)
(0.000115335 -1.49327e-05 0.00995578)
(8.24299e-05 -1.31165e-05 0.00994401)
(5.59938e-05 -1.18858e-05 0.0099413)
(3.25009e-05 -1.10462e-05 0.0099413)
(1.06058e-05 -1.06469e-05 0.00994167)
(-1.06137e-05 -1.064e-05 0.00994164)
(-3.25064e-05 -1.10258e-05 0.00994134)
(-5.60086e-05 -1.1856e-05 0.00994134)
(-8.24429e-05 -1.30532e-05 0.00994415)
(-0.00011534 -1.48747e-05 0.00995592)
(0.000119668 -4.47298e-05 0.00995747)
(8.52826e-05 -3.98298e-05 0.00994482)
(5.80079e-05 -3.62288e-05 0.00994145)
(3.37269e-05 -3.37621e-05 0.00994112)
(1.10154e-05 -3.25318e-05 0.00994128)
(-1.10042e-05 -3.25235e-05 0.00994138)
(-3.37286e-05 -3.37377e-05 0.00994114)
(-5.80104e-05 -3.61951e-05 0.00994153)
(-8.52917e-05 -3.97869e-05 0.00994501)
(-0.000119682 -4.46847e-05 0.00995767)
(0.000126735 -7.58383e-05 0.00996083)
(9.04232e-05 -6.79554e-05 0.00994709)
(6.19648e-05 -6.19962e-05 0.00994251)
(3.61915e-05 -5.80376e-05 0.00994141)
(1.18482e-05 -5.60229e-05 0.00994132)
(-1.18322e-05 -5.6021e-05 0.00994135)
(-3.61764e-05 -5.80259e-05 0.00994159)
(-6.19562e-05 -6.19614e-05 0.00994269)
(-9.04222e-05 -6.79218e-05 0.00994734)
(-0.000126742 -7.57962e-05 0.00996118)
(0.000138468 -0.000110152 0.00996607)
(9.83783e-05 -9.84141e-05 0.00995262)
(6.79205e-05 -9.04497e-05 0.0099471)
(3.97895e-05 -8.52957e-05 0.00994485)
(1.30733e-05 -8.24543e-05 0.0099441)
(-1.30468e-05 -8.24429e-05 0.00994418)
(-3.97702e-05 -8.52904e-05 0.00994504)
(-6.7909e-05 -9.04278e-05 0.0099474)
(-9.83766e-05 -9.84046e-05 0.00995299)
(-0.000138476 -0.000110135 0.00996657)
(0.000147303 -0.000147332 0.00997569)
(0.000110106 -0.000138495 0.00996612)
(7.57956e-05 -0.000126758 0.00996086)
(4.46894e-05 -0.000119687 0.00995754)
(1.48834e-05 -0.000115353 0.00995593)
(-1.48615e-05 -0.000115353 0.00995602)
(-4.46857e-05 -0.000119681 0.00995784)
(-7.58016e-05 -0.000126746 0.0099613)
(-0.000110124 -0.000138503 0.0099665)
(-0.000147345 -0.0001473 0.00997629)
(0.000196938 0.000196983 0.0103428)
(0.000142418 0.000167999 0.0103228)
(9.85162e-05 0.000164382 0.0103064)
(5.85324e-05 0.000158156 0.0102961)
(1.93565e-05 0.000155501 0.0102906)
(-1.92453e-05 0.000155501 0.0102906)
(-5.84089e-05 0.000158135 0.0102961)
(-9.84057e-05 0.000164362 0.0103065)
(-0.000142344 0.000167956 0.010323)
(-0.000196893 0.000196974 0.0103432)
(0.000167921 0.000142476 0.0103228)
(0.000128754 0.00012881 0.0103064)
(9.35838e-05 0.000124066 0.0102904)
(5.57982e-05 0.000120316 0.0102787)
(1.86953e-05 0.00011871 0.0102725)
(-1.86092e-05 0.000118711 0.0102725)
(-5.57128e-05 0.000120279 0.0102787)
(-9.35065e-05 0.000124026 0.0102904)
(-0.000128705 0.000128738 0.0103064)
(-0.000167924 0.00014242 0.010323)
(0.000164334 9.8567e-05 0.0103064)
(0.000124015 9.36427e-05 0.0102904)
(8.90928e-05 8.9148e-05 0.0102738)
(5.29547e-05 8.61047e-05 0.0102608)
(1.76959e-05 8.45033e-05 0.0102542)
(-1.76373e-05 8.44908e-05 0.0102543)
(-5.28938e-05 8.60589e-05 0.0102609)
(-8.90267e-05 8.90799e-05 0.0102738)
(-0.000123972 9.35429e-05 0.0102904)
(-0.000164326 9.84763e-05 0.0103064)
(0.000158112 5.85675e-05 0.0102961)
(0.000120261 5.58386e-05 0.0102787)
(8.60559e-05 5.30038e-05 0.0102608)
(5.11502e-05 5.11954e-05 0.0102473)
(1.70484e-05 5.02507e-05 0.0102405)
(-1.70261e-05 5.02381e-05 0.0102406)
(-5.11247e-05 5.11573e-05 0.0102474)
(-8.6034e-05 5.29389e-05 0.0102608)
(-0.000120237 5.5742e-05 0.0102786)
(-0.000158127 5.8459e-05 0.010296)
(0.000155463 1.93963e-05 0.0102906)
(0.000118674 1.87418e-05 0.0102726)
(8.44575e-05 1.77267e-05 0.0102541)
(5.0209e-05 1.70803e-05 0.0102405)
(1.67131e-05 1.67413e-05 0.0102336)
(-1.6707e-05 1.6733e-05 0.0102336)
(-5.02042e-05 1.70525e-05 0.0102405)
(-8.44491e-05 1.76618e-05 0.0102541)
(-0.000118667 1.865e-05 0.0102724)
(-0.000155474 1.92908e-05 0.0102905)
(0.00015546 -1.92246e-05 0.0102906)
(0.000118678 -1.85846e-05 0.0102726)
(8.44467e-05 -1.75968e-05 0.0102542)
(5.01938e-05 -1.69999e-05 0.0102404)
(1.66965e-05 -1.66831e-05 0.0102336)
(-1.67228e-05 -1.66874e-05 0.0102336)
(-5.02215e-05 -1.70315e-05 0.0102405)
(-8.4465e-05 -1.76574e-05 0.0102541)
(-0.000118682 -1.86739e-05 0.0102725)
(-0.000155481 -1.93281e-05 0.0102905)
(0.000158109 -5.84016e-05 0.0102962)
(0.000120238 -5.56914e-05 0.0102787)
(8.60227e-05 -5.28796e-05 0.0102608)
(5.11163e-05 -5.1101e-05 0.0102473)
(1.70143e-05 -5.01901e-05 0.0102404)
(-1.70615e-05 -5.01907e-05 0.0102404)
(-5.11481e-05 -5.11349e-05 0.0102472)
(-8.60591e-05 -5.29359e-05 0.0102607)
(-0.000120262 -5.57507e-05 0.0102785)
(-0.00015812 -5.8484e-05 0.010296)
(0.000164343 -9.8422e-05 0.0103066)
(0.000123981 -9.35049e-05 0.0102905)
(8.90467e-05 -8.90276e-05 0.0102737)
(5.28976e-05 -8.601e-05 0.0102608)
(1.7623e-05 -8.44306e-05 0.0102541)
(-1.76895e-05 -8.44459e-05 0.0102541)
(-5.2957e-05 -8.60464e-05 0.0102607)
(-8.90976e-05 -8.90772e-05 0.0102736)
(-0.000124016 -9.35604e-05 0.0102903)
(-0.000164368 -9.84835e-05 0.0103064)
(0.00016793 -0.000142364 0.0103232)
(0.000128726 -0.000128703 0.0103065)
(9.35203e-05 -0.000123981 0.0102904)
(5.57072e-05 -0.000120243 0.0102786)
(1.861e-05 -0.000118672 0.0102725)
(-1.87016e-05 -0.000118679 0.0102724)
(-5.57823e-05 -0.00012026 0.0102785)
(-9.35678e-05 -0.000124013 0.0102903)
(-0.000128754 -0.000128727 0.0103063)
(-0.000167938 -0.000142385 0.0103228)
(0.000196935 -0.00019692 0.0103434)
(0.000142402 -0.000167928 0.0103232)
(9.84508e-05 -0.000164334 0.0103065)
(5.84179e-05 -0.000158107 0.0102961)
(1.92586e-05 -0.000155461 0.0102905)
(-1.93415e-05 -0.000155468 0.0102905)
(-5.84945e-05 -0.000158111 0.0102959)
(-9.84946e-05 -0.000164339 0.0103062)
(-0.000142415 -0.000167928 0.0103228)
(-0.000196938 -0.000196913 0.0103429)
(0.000223026 0.000222962 0.0105461)
(0.000166959 0.00019332 0.0104954)
(0.000117067 0.000194219 0.0104593)
(7.03028e-05 0.000187547 0.010436)
(2.29277e-05 0.000186023 0.0104239)
(-2.29989e-05 0.000186029 0.0104239)
(-7.03799e-05 0.000187559 0.0104359)
(-0.000117141 0.000194249 0.0104592)
(-0.000166997 0.000193346 0.0104953)
(-0.000223032 0.000223009 0.0105458)
(0.000193367 0.000166901 0.0104953)
(0.000154226 0.000154174 0.0104403)
(0.00011246 0.000150567 0.0104031)
(6.80341e-05 0.000146457 0.0103809)
(2.27695e-05 0.000145217 0.0103701)
(-2.28092e-05 0.000145223 0.01037)
(-6.8081e-05 0.000146489 0.0103809)
(-0.000112504 0.000150624 0.0104032)
(-0.00015425 0.00015424 0.0104404)
(-0.00019337 0.000166968 0.0104954)
(0.000194259 0.000117016 0.0104593)
(0.000150616 0.000112424 0.0104031)
(0.000109266 0.000109227 0.0103682)
(6.55286e-05 0.00010616 0.0103478)
(2.19419e-05 0.000104698 0.0103382)
(-2.19534e-05 0.000104714 0.0103382)
(-6.55511e-05 0.000106187 0.0103477)
(-0.000109287 0.00010928 0.0103683)
(-0.000150633 0.000112505 0.0104032)
(-0.00019424 0.000117116 0.0104594)
(0.000187559 7.02622e-05 0.0104359)
(0.000146503 6.79942e-05 0.0103809)
(0.000106186 6.5491e-05 0.0103478)
(6.37589e-05 6.37206e-05 0.0103288)
(2.13958e-05 6.28367e-05 0.0103198)
(-2.1386e-05 6.28524e-05 0.0103197)
(-6.37452e-05 6.37615e-05 0.0103286)
(-0.000106181 6.55475e-05 0.0103478)
(-0.000146496 6.80763e-05 0.0103809)
(-0.000187551 7.03724e-05 0.0104361)
(0.000186059 2.28927e-05 0.0104239)
(0.000145247 2.27339e-05 0.0103701)
(0.000104738 2.19262e-05 0.0103382)
(6.28652e-05 2.13744e-05 0.0103198)
(2.10753e-05 2.1052e-05 0.0103112)
(-2.10405e-05 2.10577e-05 0.0103111)
(-6.28459e-05 2.14004e-05 0.0103197)
(-0.000104717 2.19763e-05 0.0103383)
(-0.000145232 2.28067e-05 0.0103702)
(-0.000186025 2.29863e-05 0.0104241)
(0.000186044 -2.30225e-05 0.0104239)
(0.000145259 -2.2836e-05 0.01037)
(0.000104743 -2.19847e-05 0.0103382)
(6.28755e-05 -2.14003e-05 0.0103198)
(2.1074e-05 -2.10598e-05 0.0103112)
(-2.10343e-05 -2.10449e-05 0.0103112)
(-6.28399e-05 -2.13904e-05 0.0103198)
(-0.000104703 -2.19339e-05 0.0103383)
(-0.000145228 -2.27696e-05 0.0103701)
(-0.000186016 -2.29297e-05 0.010424)
(0.000187595 -7.04055e-05 0.010436)
(0.000146519 -6.80919e-05 0.0103809)
(0.000106219 -6.55635e-05 0.0103479)
(6.378e-05 -6.37715e-05 0.0103287)
(2.14248e-05 -6.2866e-05 0.0103198)
(-2.13616e-05 -6.28463e-05 0.0103198)
(-6.37214e-05 -6.37352e-05 0.0103288)
(-0.00010616 -6.55193e-05 0.0103479)
(-0.000146479 -6.80331e-05 0.010381)
(-0.000187551 -7.03203e-05 0.010436)
(0.000194271 -0.000117138 0.0104592)
(0.000150642 -0.000112514 0.0104031)
(0.000109313 -0.000109296 0.0103683)
(6.55782e-05 -0.000106197 0.0103479)
(2.20056e-05 -0.000104725 0.0103383)
(-2.19161e-05 -0.000104722 0.0103383)
(-6.54998e-05 -0.000106174 0.010348)
(-0.000109252 -0.000109256 0.0103683)
(-0.000150596 -0.000112464 0.0104032)
(-0.00019423 -0.000117075 0.0104593)
(0.000193376 -0.000166996 0.0104952)
(0.000154268 -0.000154246 0.0104403)
(0.000112523 -0.000150624 0.0104031)
(6.81065e-05 -0.000146493 0.0103809)
(2.28494e-05 -0.00014523 0.0103701)
(-2.27361e-05 -0.00014523 0.0103701)
(-6.80172e-05 -0.000146477 0.0103809)
(-0.00011245 -0.000150603 0.0104032)
(-0.000154205 -0.000154218 0.0104404)
(-0.000193334 -0.000166956 0.0104954)
(0.000223034 -0.00022303 0.0105457)
(0.000166988 -0.000193367 0.0104952)
(0.000117138 -0.00019425 0.0104592)
(7.03954e-05 -0.000187557 0.010436)
(2.30214e-05 -0.000186032 0.010424)
(-2.29008e-05 -0.000186027 0.0104241)
(-7.02903e-05 -0.000187558 0.0104361)
(-0.000117074 -0.000194242 0.0104594)
(-0.000166942 -0.000193361 0.0104954)
(-0.000223015 -0.00022302 0.010546)
(0.000216984 0.000217036 0.0108194)
(0.000165279 0.000194167 0.0107871)
(0.000116181 0.000198976 0.010763)
(7.01626e-05 0.000194343 0.0107473)
(2.25946e-05 0.000194486 0.0107392)
(-2.25433e-05 0.000194488 0.0107392)
(-7.01122e-05 0.000194316 0.0107473)
(-0.000116126 0.000198946 0.0107629)
(-0.000165229 0.000194107 0.0107871)
(-0.00021698 0.000216985 0.0108195)
(0.000194114 0.000165331 0.0107871)
(0.000155291 0.00015533 0.0107615)
(0.000112357 0.000154559 0.0107366)
(6.84246e-05 0.00015182 0.0107186)
(2.27075e-05 0.000151603 0.010709)
(-2.26938e-05 0.000151596 0.010709)
(-6.84072e-05 0.000151788 0.0107186)
(-0.000112335 0.000154517 0.0107365)
(-0.000155286 0.000155248 0.0107613)
(-0.000194125 0.000165244 0.010787)
(0.000198949 0.000116209 0.0107629)
(0.000154528 0.000112388 0.0107366)
(0.000112027 0.000112054 0.0107101)
(6.72541e-05 0.000110182 0.0106903)
(2.25053e-05 0.000109668 0.0106798)
(-2.25057e-05 0.00010966 0.0106799)
(-6.72615e-05 0.000110155 0.0106904)
(-0.000112023 0.000112001 0.0107101)
(-0.000154529 0.000112318 0.0107364)
(-0.000198968 0.000116112 0.0107627)
(0.000194322 7.02028e-05 0.0107473)
(0.000151785 6.84521e-05 0.0107186)
(0.000110152 6.72858e-05 0.0106903)
(6.62087e-05 6.62284e-05 0.0106692)
(2.2244e-05 6.58308e-05 0.0106584)
(-2.22646e-05 6.58233e-05 0.0106585)
(-6.62454e-05 6.62017e-05 0.0106694)
(-0.000110175 6.72399e-05 0.0106903)
(-0.000151814 6.83809e-05 0.0107186)
(-0.000194356 7.00971e-05 0.0107471)
(0.000194471 2.26156e-05 0.0107392)
(0.000151574 2.27383e-05 0.010709)
(0.000109642 2.25193e-05 0.0106798)
(6.581e-05 2.22516e-05 0.0106584)
(2.20891e-05 2.20946e-05 0.0106475)
(-2.21271e-05 2.2098e-05 0.0106475)
(-6.58533e-05 2.22293e-05 0.0106585)
(-0.000109675 2.24776e-05 0.0106798)
(-0.000151606 2.26674e-05 0.0107089)
(-0.000194496 2.25299e-05 0.010739)
(0.000194456 -2.25136e-05 0.0107392)
(0.000151568 -2.26721e-05 0.010709)
(0.00010964 -2.24858e-05 0.0106798)
(6.58011e-05 -2.2249e-05 0.0106584)
(2.20737e-05 -2.21143e-05 0.0106475)
(-2.21391e-05 -2.21171e-05 0.0106475)
(-6.58665e-05 -2.2273e-05 0.0106584)
(-0.000109682 -2.25226e-05 0.0106797)
(-0.000151615 -2.27371e-05 0.0107089)
(-0.000194505 -2.2601e-05 0.0107391)
(0.000194295 -7.00952e-05 0.0107473)
(0.00015177 -6.8374e-05 0.0107186)
(0.000110123 -6.72383e-05 0.0106902)
(6.61812e-05 -6.62119e-05 0.0106693)
(2.22113e-05 -6.5833e-05 0.0106584)
(-2.22908e-05 -6.58421e-05 0.0106584)
(-6.62487e-05 -6.62429e-05 0.0106692)
(-0.00011019 -6.72811e-05 0.0106902)
(-0.000151828 -6.84348e-05 0.0107185)
(-0.000194346 -7.01644e-05 0.0107473)
(0.000198921 -0.000116099 0.0107629)
(0.000154476 -0.000112317 0.0107365)
(0.000111975 -0.00011201 0.01071)
(6.72104e-05 -0.000110156 0.0106902)
(2.2452e-05 -0.000109663 0.0106798)
(-2.25529e-05 -0.000109677 0.0106798)
(-6.73011e-05 -0.000110185 0.0106902)
(-0.000112056 -0.000112054 0.01071)
(-0.000154545 -0.000112369 0.0107365)
(-0.000198987 -0.00011617 0.0107629)
(0.00019408 -0.000165238 0.0107872)
(0.000155229 -0.000155261 0.0107614)
(0.000112286 -0.000154515 0.0107365)
(6.83497e-05 -0.000151789 0.0107186)
(2.26333e-05 -0.000151591 0.0107089)
(-2.27611e-05 -0.000151607 0.0107089)
(-6.84575e-05 -0.000151816 0.0107186)
(-0.00011238 -0.000154551 0.0107365)
(-0.000155317 -0.000155305 0.0107614)
(-0.000194135 -0.000165276 0.0107871)
(0.000216957 -0.000216982 0.0108196)
(0.000165224 -0.000194126 0.0107872)
(0.000116088 -0.000198953 0.0107629)
(7.00704e-05 -0.000194341 0.0107473)
(2.24964e-05 -0.000194498 0.0107391)
(-2.26423e-05 -0.000194484 0.0107391)
(-7.02041e-05 -0.000194344 0.0107472)
(-0.000116196 -0.000198966 0.0107628)
(-0.000165303 -0.000194137 0.010787)
(-0.000217007 -0.000216986 0.0108194)
(0.000195041 0.000195002 0.011045)
(0.000152372 0.000180905 0.0109814)
(0.000108043 0.000186953 0.0109355)
(6.57324e-05 0.000184327 0.0109051)
(2.09183e-05 0.000185425 0.0108899)
(-2.09261e-05 0.000185436 0.0108898)
(-6.57266e-05 0.000184355 0.010905)
(-0.000108055 0.000186983 0.0109356)
(-0.000152379 0.000180967 0.0109816)
(-0.000195028 0.000195065 0.0110451)
(0.000180934 0.000152345 0.0109815)
(0.000145527 0.000145494 0.0109141)
(0.000104854 0.000146129 0.0108682)
(6.42998e-05 0.000144097 0.0108398)
(2.10847e-05 0.000144338 0.0108259)
(-2.10636e-05 0.000144337 0.0108259)
(-6.42777e-05 0.000144121 0.0108398)
(-0.00010483 0.000146174 0.0108683)
(-0.000145503 0.000145558 0.0109143)
(-0.000180904 0.000152413 0.0109817)
(0.000186974 0.000108026 0.0109356)
(0.000146148 0.000104837 0.0108682)
(0.000106142 0.000106143 0.0108248)
(6.39742e-05 0.000104795 0.0107987)
(2.13256e-05 0.000104813 0.0107861)
(-2.13062e-05 0.000104807 0.010786)
(-6.39328e-05 0.00010481 0.0107986)
(-0.000106114 0.00010616 0.0108248)
(-0.000146121 0.000104883 0.0108683)
(-0.000186939 0.000108093 0.0109358)
(0.000184335 6.57054e-05 0.0109051)
(0.000144126 6.42761e-05 0.0108398)
(0.000104794 6.3969e-05 0.0107987)
(6.31993e-05 6.31804e-05 0.010774)
(2.12188e-05 6.30262e-05 0.0107621)
(-2.1166e-05 6.30416e-05 0.010762)
(-6.31416e-05 6.31945e-05 0.0107739)
(-0.000104752 6.40007e-05 0.0107986)
(-0.000144085 6.43345e-05 0.0108399)
(-0.000184286 6.57766e-05 0.0109052)
(0.000185444 2.09007e-05 0.0108899)
(0.000144356 2.10686e-05 0.0108259)
(0.000104814 2.1322e-05 0.0107861)
(6.30404e-05 2.12152e-05 0.0107621)
(2.11915e-05 2.11875e-05 0.0107505)
(-2.11367e-05 2.12015e-05 0.0107505)
(-6.2977e-05 2.12339e-05 0.010762)
(-0.000104762 2.13562e-05 0.0107861)
(-0.000144302 2.11157e-05 0.010826)
(-0.000185396 2.09634e-05 0.0108901)
(0.000185442 -2.09485e-05 0.0108899)
(0.00014437 -2.10858e-05 0.0108259)
(0.000104829 -2.13105e-05 0.0107861)
(6.30461e-05 -2.11814e-05 0.0107621)
(2.12029e-05 -2.11375e-05 0.0107505)
(-2.11309e-05 -2.11397e-05 0.0107506)
(-6.29854e-05 -2.11625e-05 0.0107621)
(-0.000104764 -2.12819e-05 0.0107861)
(-0.000144304 -2.10375e-05 0.0108259)
(-0.000185393 -2.0884e-05 0.0108899)
(0.000184366 -6.57563e-05 0.0109051)
(0.000144139 -6.42989e-05 0.0108398)
(0.000104824 -6.39549e-05 0.0107987)
(6.32145e-05 -6.31619e-05 0.010774)
(2.12332e-05 -6.3004e-05 0.0107621)
(-2.11476e-05 -6.29943e-05 0.0107621)
(-6.31373e-05 -6.31373e-05 0.010774)
(-0.000104751 -6.39335e-05 0.0107987)
(-0.000144071 -6.42553e-05 0.0108398)
(-0.000184304 -6.56948e-05 0.010905)
(0.000187007 -0.000108076 0.0109356)
(0.000146192 -0.000104856 0.0108683)
(0.000106188 -0.000106147 0.0108249)
(6.40062e-05 -0.000104783 0.0107987)
(2.13742e-05 -0.000104774 0.0107861)
(-2.12734e-05 -0.000104761 0.0107861)
(-6.39093e-05 -0.000104758 0.0107987)
(-0.000106105 -0.000106097 0.0108249)
(-0.000146112 -0.00010481 0.0108682)
(-0.000186935 -0.000108013 0.0109356)
(0.000180987 -0.000152396 0.0109816)
(0.00014558 -0.00014553 0.0109142)
(0.000104908 -0.000146142 0.0108682)
(6.43532e-05 -0.000144094 0.0108398)
(2.1146e-05 -0.000144314 0.0108259)
(-2.10173e-05 -0.000144308 0.0108259)
(-6.42414e-05 -0.000144074 0.0108398)
(-0.0001048 -0.000146111 0.0108682)
(-0.00014549 -0.000145481 0.0109141)
(-0.000180905 -0.000152344 0.0109815)
(0.000195096 -0.000195036 0.011045)
(0.000152443 -0.000180925 0.0109815)
(0.000108128 -0.000186944 0.0109356)
(6.58005e-05 -0.000184317 0.0109051)
(2.10153e-05 -0.000185402 0.01089)
(-2.08531e-05 -0.000185401 0.01089)
(-6.56529e-05 -0.000184304 0.0109051)
(-0.000108003 -0.000186937 0.0109356)
(-0.000152341 -0.000180906 0.0109815)
(-0.000195017 -0.00019503 0.011045)
(0.00017117 0.0001712 0.0112574)
(0.000134468 0.000168355 0.0112249)
(9.57773e-05 0.000177063 0.0111994)
(5.82098e-05 0.000178157 0.0111815)
(1.84895e-05 0.000180611 0.0111724)
(-1.85024e-05 0.000180608 0.0111724)
(-5.82105e-05 0.000178136 0.0111815)
(-9.57791e-05 0.000177033 0.0111994)
(-0.000134474 0.000168319 0.0112248)
(-0.000171182 0.000171152 0.0112573)
(0.000168344 0.000134491 0.0112249)
(0.000133493 0.000133491 0.0111942)
(9.53626e-05 0.000137551 0.0111665)
(5.83084e-05 0.000138069 0.0111459)
(1.89539e-05 0.00013944 0.011135)
(-1.898e-05 0.000139427 0.011135)
(-5.83299e-05 0.000138078 0.0111459)
(-9.5373e-05 0.000137526 0.0111664)
(-0.000133501 0.00013346 0.011194)
(-0.000168351 0.000134427 0.0112247)
(0.000177053 9.57894e-05 0.0111994)
(0.000137547 9.5363e-05 0.0111665)
(9.94791e-05 9.94917e-05 0.0111358)
(5.97253e-05 9.99934e-05 0.0111129)
(1.98694e-05 0.000101038 0.011101)
(-1.98868e-05 0.000101028 0.011101)
(-5.97606e-05 9.99747e-05 0.011113)
(-9.95115e-05 9.94766e-05 0.0111358)
(-0.000137576 9.53357e-05 0.0111665)
(-0.000177088 9.5735e-05 0.0111992)
(0.000178154 5.82333e-05 0.0111815)
(0.000138076 5.83197e-05 0.0111459)
(9.99761e-05 5.97406e-05 0.0111129)
(6.00043e-05 6.00113e-05 0.0110887)
(2.00895e-05 6.04487e-05 0.0110762)
(-2.01185e-05 6.04481e-05 0.0110763)
(-6.0048e-05 5.99904e-05 0.0110889)
(-0.000100018 5.97132e-05 0.0111129)
(-0.000138114 5.82839e-05 0.0111459)
(-0.000178175 5.8175e-05 0.0111813)
(0.000180608 1.8503e-05 0.0111725)
(0.00013942 1.89742e-05 0.011135)
(0.000101027 1.98659e-05 0.0111009)
(6.04466e-05 2.00856e-05 0.0110762)
(2.02981e-05 2.02946e-05 0.0110636)
(-2.03441e-05 2.02934e-05 0.0110637)
(-6.04931e-05 2.00739e-05 0.0110763)
(-0.000101082 1.98419e-05 0.0111009)
(-0.000139468 1.8932e-05 0.0111349)
(-0.000180642 1.84479e-05 0.0111723)
(0.0001806 -1.84861e-05 0.0111724)
(0.000139419 -1.89565e-05 0.011135)
(0.000101018 -1.98885e-05 0.011101)
(6.04391e-05 -2.01227e-05 0.0110763)
(2.02848e-05 -2.03404e-05 0.0110637)
(-2.0359e-05 -2.03429e-05 0.0110637)
(-6.04917e-05 -2.01383e-05 0.0110762)
(-0.000101082 -1.99075e-05 0.0111009)
(-0.000139464 -1.90019e-05 0.011135)
(-0.000180647 -1.85288e-05 0.0111724)
(0.000178128 -5.82068e-05 0.0111814)
(0.000138053 -5.83264e-05 0.0111459)
(9.99559e-05 -5.97466e-05 0.0111129)
(6.00019e-05 -6.00344e-05 0.0110888)
(2.00712e-05 -6.04931e-05 0.0110763)
(-2.01482e-05 -6.04946e-05 0.0110763)
(-6.00615e-05 -6.00509e-05 0.0110887)
(-0.000100021 -5.97813e-05 0.0111128)
(-0.000138106 -5.83527e-05 0.0111459)
(-0.000178184 -5.82573e-05 0.0111815)
(0.00017702 -9.57534e-05 0.0111993)
(0.000137504 -9.53591e-05 0.0111665)
(9.94608e-05 -9.94907e-05 0.0111357)
(5.97042e-05 -0.000100005 0.0111129)
(1.98362e-05 -0.00010106 0.0111009)
(-1.99334e-05 -0.000101065 0.0111009)
(-5.97768e-05 -0.000100021 0.0111128)
(-9.9525e-05 -9.95229e-05 0.0111357)
(-0.000137565 -9.54019e-05 0.0111665)
(-0.000177079 -9.58204e-05 0.0111994)
(0.000168289 -0.000134446 0.0112248)
(0.000133448 -0.000133479 0.0111942)
(9.53207e-05 -0.00013755 0.0111665)
(5.82678e-05 -0.000138083 0.0111459)
(1.89129e-05 -0.000139449 0.011135)
(-1.90213e-05 -0.000139472 0.011135)
(-5.83623e-05 -0.000138107 0.0111459)
(-9.54034e-05 -0.000137591 0.0111666)
(-0.000133529 -0.000133522 0.0111943)
(-0.000168365 -0.000134504 0.011225)
(0.000171114 -0.000171172 0.0112574)
(0.000134411 -0.000168357 0.0112249)
(9.57154e-05 -0.000177071 0.0111994)
(5.81456e-05 -0.000178178 0.0111814)
(1.8435e-05 -0.000180642 0.0111723)
(-1.85623e-05 -0.000180642 0.0111724)
(-5.82618e-05 -0.000178182 0.0111815)
(-9.58219e-05 -0.000177099 0.0111994)
(-0.000134502 -0.000168376 0.0112249)
(-0.000171212 -0.000171211 0.0112575)
(0.000140765 0.000140766 0.0114491)
(0.000112672 0.000142555 0.0113902)
(8.07423e-05 0.000149707 0.0113437)
(4.91736e-05 0.000151907 0.011312)
(1.5585e-05 0.000154345 0.0112966)
(-1.55541e-05 0.000154357 0.0112966)
(-4.91355e-05 0.000151917 0.011312)
(-8.07256e-05 0.000149718 0.0113437)
(-0.000112655 0.000142591 0.0113903)
(-0.000140745 0.000140801 0.0114493)
(0.000142557 0.000112673 0.0113903)
(0.000112473 0.000112467 0.0113225)
(8.0018e-05 0.000116146 0.0112761)
(4.89164e-05 0.000116889 0.011247)
(1.57591e-05 0.000118192 0.0112329)
(-1.57269e-05 0.000118188 0.0112329)
(-4.88723e-05 0.000116903 0.0112469)
(-7.99792e-05 0.000116164 0.0112762)
(-0.000112435 0.000112483 0.0113227)
(-0.000142526 0.000112699 0.0113905)
(0.000149691 8.07534e-05 0.0113437)
(0.000116151 8.00191e-05 0.0112762)
(8.40362e-05 8.40462e-05 0.011232)
(5.05165e-05 8.4716e-05 0.011205)
(1.67632e-05 8.58642e-05 0.0111921)
(-1.673e-05 8.58598e-05 0.011192)
(-5.04676e-05 8.47064e-05 0.0112049)
(-8.40017e-05 8.4046e-05 0.011232)
(-0.000116121 8.00278e-05 0.0112762)
(-0.00014966 8.07701e-05 0.0113439)
(0.000151891 4.91622e-05 0.011312)
(0.000116902 4.89143e-05 0.011247)
(8.46998e-05 5.05212e-05 0.011205)
(5.08386e-05 5.08424e-05 0.0111794)
(1.70052e-05 5.13267e-05 0.011167)
(-1.69562e-05 5.13367e-05 0.0111669)
(-5.07916e-05 5.08354e-05 0.0111793)
(-8.46573e-05 5.053e-05 0.011205)
(-0.00011686 4.89247e-05 0.0112469)
(-0.000151859 4.91889e-05 0.0113121)
(0.000154339 1.55825e-05 0.0112966)
(0.00011819 1.57563e-05 0.0112329)
(8.58701e-05 1.67689e-05 0.0111921)
(5.13308e-05 1.70007e-05 0.011167)
(1.72625e-05 1.7268e-05 0.0111548)
(-1.72202e-05 1.72755e-05 0.0111548)
(-5.12738e-05 1.70156e-05 0.0111669)
(-8.58275e-05 1.67826e-05 0.0111921)
(-0.000118144 1.57754e-05 0.011233)
(-0.00015431 1.55958e-05 0.0112968)
(0.000154342 -1.5565e-05 0.0112966)
(0.000118194 -1.57406e-05 0.0112329)
(8.58576e-05 -1.67317e-05 0.011192)
(5.13365e-05 -1.69757e-05 0.0111669)
(1.72677e-05 -1.72278e-05 0.0111548)
(-1.72166e-05 -1.7219e-05 0.0111548)
(-5.12828e-05 -1.69511e-05 0.011167)
(-8.58266e-05 -1.6719e-05 0.0111921)
(-0.000118134 -1.5717e-05 0.0112329)
(-0.000154307 -1.55404e-05 0.0112966)
(0.000151914 -4.91573e-05 0.011312)
(0.000116904 -4.88856e-05 0.0112469)
(8.47067e-05 -5.04773e-05 0.011205)
(5.08492e-05 -5.07962e-05 0.0111793)
(1.70178e-05 -5.12956e-05 0.0111669)
(-1.69487e-05 -5.1288e-05 0.0111669)
(-5.07881e-05 -5.07861e-05 0.0111794)
(-8.46626e-05 -5.04648e-05 0.0112051)
(-0.000116853 -4.88649e-05 0.0112469)
(-0.000151869 -4.91291e-05 0.011312)
(0.00014972 -8.07523e-05 0.0113437)
(0.000116172 -7.99998e-05 0.0112762)
(8.40652e-05 -8.40359e-05 0.0112321)
(5.05225e-05 -8.46853e-05 0.011205)
(1.6787e-05 -8.58263e-05 0.011192)
(-1.67229e-05 -8.5822e-05 0.0111921)
(-5.04545e-05 -8.46623e-05 0.011205)
(-8.4002e-05 -8.40107e-05 0.0112321)
(-0.00011612 -7.99771e-05 0.0112761)
(-0.000149666 -8.0714e-05 0.0113436)
(0.000142597 -0.000112684 0.0113904)
(0.000112493 -0.000112466 0.0113226)
(8.00381e-05 -0.000116137 0.0112762)
(4.89358e-05 -0.000116867 0.0112469)
(1.57861e-05 -0.000118142 0.0112329)
(-1.56962e-05 -0.000118149 0.0112328)
(-4.88638e-05 -0.000116851 0.0112469)
(-7.99768e-05 -0.000116119 0.0112761)
(-0.00011243 -0.000112417 0.0113224)
(-0.000142532 -0.000112626 0.0113902)
(0.000140822 -0.000140767 0.0114492)
(0.000112723 -0.00014255 0.0113903)
(8.07954e-05 -0.000149685 0.0113437)
(4.91982e-05 -0.000151872 0.0113121)
(1.5639e-05 -0.000154316 0.0112967)
(-1.55262e-05 -0.0001543 0.0112967)
(-4.90959e-05 -0.000151866 0.011312)
(-8.07038e-05 -0.000149664 0.0113436)
(-0.000112636 -0.000142514 0.0113902)
(-0.000140747 -0.000140735 0.0114489)
(0.000128465 0.000128461 0.0115857)
(0.00010207 0.000136293 0.0115659)
(7.37471e-05 0.000144844 0.0115438)
(4.45714e-05 0.000149288 0.0115265)
(1.43356e-05 0.000152384 0.0115177)
(-1.43738e-05 0.000152382 0.0115177)
(-4.46075e-05 0.000149284 0.0115266)
(-7.37951e-05 0.000144839 0.0115438)
(-0.000102096 0.000136296 0.0115659)
(-0.000128479 0.000128455 0.0115856)
(0.000136306 0.000102076 0.0115659)
(0.000106031 0.000106011 0.0115356)
(7.54627e-05 0.000111725 0.0115081)
(4.56901e-05 0.000114204 0.0114871)
(1.47771e-05 0.000116112 0.0114763)
(-1.48053e-05 0.000116104 0.0114763)
(-4.57262e-05 0.000114224 0.0114872)
(-7.54889e-05 0.000111735 0.011508)
(-0.000106053 0.000106028 0.0115355)
(-0.000136306 0.000102071 0.0115658)
(0.000144867 7.37447e-05 0.0115437)
(0.000111735 7.5446e-05 0.011508)
(8.08006e-05 8.07988e-05 0.0114763)
(4.82401e-05 8.26328e-05 0.0114529)
(1.60765e-05 8.42581e-05 0.0114409)
(-1.6097e-05 8.42587e-05 0.0114409)
(-4.82817e-05 8.2629e-05 0.011453)
(-8.08265e-05 8.08111e-05 0.0114763)
(-0.000111766 7.54736e-05 0.011508)
(-0.000144882 7.37604e-05 0.0115436)
(0.000149303 4.45744e-05 0.0115265)
(0.000114219 4.56893e-05 0.0114871)
(8.26198e-05 4.82471e-05 0.0114529)
(4.92554e-05 4.92466e-05 0.0114282)
(1.64864e-05 5.005e-05 0.0114157)
(-1.64932e-05 5.00504e-05 0.0114158)
(-4.92897e-05 4.92516e-05 0.0114283)
(-8.26476e-05 4.82503e-05 0.0114529)
(-0.000114239 4.5699e-05 0.0114871)
(-0.000149315 4.45859e-05 0.0115265)
(0.000152407 1.43295e-05 0.0115177)
(0.000116098 1.47797e-05 0.0114763)
(8.4262e-05 1.60674e-05 0.0114409)
(5.0058e-05 1.64872e-05 0.0114157)
(1.68604e-05 1.6848e-05 0.011403)
(-1.68766e-05 1.68608e-05 0.0114031)
(-5.0075e-05 1.64829e-05 0.0114158)
(-8.42977e-05 1.60723e-05 0.0114409)
(-0.000116139 1.47755e-05 0.0114762)
(-0.000152419 1.43342e-05 0.0115176)
(0.000152393 -1.43762e-05 0.0115177)
(0.000116104 -1.47988e-05 0.0114763)
(8.4267e-05 -1.60976e-05 0.0114409)
(5.00519e-05 -1.65057e-05 0.0114158)
(1.68537e-05 -1.68913e-05 0.011403)
(-1.6893e-05 -1.6878e-05 0.011403)
(-5.00748e-05 -1.65169e-05 0.0114157)
(-8.42912e-05 -1.60999e-05 0.0114409)
(-0.000116122 -1.48009e-05 0.0114763)
(-0.000152414 -1.43665e-05 0.0115177)
(0.000149297 -4.4612e-05 0.0115265)
(0.000114215 -4.57156e-05 0.0114872)
(8.26286e-05 -4.82734e-05 0.0114529)
(4.92588e-05 -4.92698e-05 0.0114283)
(1.64837e-05 -5.00704e-05 0.0114158)
(-1.65151e-05 -5.00699e-05 0.0114157)
(-4.92926e-05 -4.92748e-05 0.0114282)
(-8.26396e-05 -4.82772e-05 0.0114528)
(-0.000114229 -4.57154e-05 0.0114872)
(-0.000149306 -4.46047e-05 0.0115266)
(0.000144854 -7.37633e-05 0.0115438)
(0.00011172 -7.54769e-05 0.0115081)
(8.08043e-05 -8.08166e-05 0.0114762)
(4.82537e-05 -8.26529e-05 0.0114529)
(1.60614e-05 -8.42773e-05 0.0114409)
(-1.61019e-05 -8.42805e-05 0.0114409)
(-4.82706e-05 -8.26377e-05 0.0114529)
(-8.08238e-05 -8.0825e-05 0.0114763)
(-0.000111734 -7.54777e-05 0.0115081)
(-0.000144868 -7.37769e-05 0.0115438)
(0.000136294 -0.000102075 0.0115658)
(0.000106032 -0.000106032 0.0115357)
(7.54622e-05 -0.00011175 0.0115081)
(4.56904e-05 -0.000114216 0.0114871)
(1.47741e-05 -0.00011612 0.0114763)
(-1.48113e-05 -0.00011614 0.0114764)
(-4.57162e-05 -0.000114237 0.0114872)
(-7.54744e-05 -0.000111767 0.0115081)
(-0.000106062 -0.000106056 0.0115358)
(-0.000136317 -0.000102117 0.011566)
(0.000128442 -0.000128475 0.0115856)