/*--------------------------------*- C++ -*----------------------------------*\
| =========                 |                                                 |
| \\      /  F ield         | OpenFOAM: The Open Source CFD Toolbox           |
|  \\    /   O peration     | Version:  2406                                  |
|   \\  /    A nd           | Website:  www.openfoam.com                      |
|    \\/     M anipulation  |                                                 |
\*---------------------------------------------------------------------------*/
FoamFile
{
    version     2.0;
    format      ascii;
    arch        "LSB;label=32;scalar=64";
    class       surfaceScalarField;
    location    "0.5";
    object      phi;
}
// * * * * * * * * * * * * * * * * * * * * * * * * * * * * * * * * * * * * * //

dimensions      [0 3 -1 0 0 0 0];

oriented        oriented;

internalField   nonuniform List<scalar> 
43700
(
1.72588e-08
1.72819e-08
4.79437e-07
-2.19416e-08
-2.20058e-08
1.28127e-08
1.60098e-08
5.18383e-07
-2.05734e-08
8.55429e-09
1.51213e-08
5.4804e-07
-1.94731e-08
4.29333e-09
1.4613e-08
5.68161e-07
-1.88077e-08
-5.61416e-11
1.42674e-08
5.78316e-07
-1.83096e-08
-4.39937e-09
1.42765e-08
5.78304e-07
-1.83101e-08
-8.66835e-09
1.46287e-08
5.6815e-07
-1.87991e-08
-1.29172e-08
1.51442e-08
5.48015e-07
-1.94717e-08
-1.73492e-08
1.60463e-08
5.18346e-07
-2.05866e-08
1.73063e-08
4.7939e-07
-2.204e-08
-2.19852e-08
1.6e-08
1.28292e-08
5.18385e-07
-2.05593e-08
1.18226e-08
1.18381e-08
5.54185e-07
7.83443e-09
1.11768e-08
5.81628e-07
3.8995e-09
1.07446e-08
6.00286e-07
-5.37667e-11
1.04824e-08
6.0971e-07
-4.00573e-09
1.04944e-08
6.09703e-07
-7.92264e-09
1.07684e-08
6.00264e-07
-1.1902e-08
1.12039e-08
5.81596e-07
-1.60551e-08
1.18782e-08
5.54152e-07
1.28746e-08
5.18346e-07
-2.05883e-08
1.51028e-08
8.55111e-09
5.48049e-07
-1.94413e-08
1.1159e-08
7.83865e-09
5.81626e-07
7.3759e-09
7.38031e-09
6.07467e-07
3.65258e-09
7.04389e-09
6.24985e-07
-4.31021e-11
6.85546e-09
6.33806e-07
-3.74735e-09
6.86698e-09
6.33802e-07
-7.46156e-09
7.06751e-09
6.24976e-07
-1.12367e-08
7.41062e-09
6.07444e-07
-1.51583e-08
7.87868e-09
5.81603e-07
8.60333e-09
5.48017e-07
-1.94875e-08
1.45879e-08
4.28293e-09
5.68163e-07
-1.87737e-08
1.07217e-08
3.90439e-09
6.00282e-07
7.03133e-09
3.66083e-09
6.24983e-07
3.4598e-09
3.4707e-09
6.41654e-07
-3.30466e-11
3.35559e-09
6.50036e-07
-3.53903e-09
3.35615e-09
6.50035e-07
-7.11023e-09
3.47521e-09
6.41652e-07
-1.07886e-08
3.68589e-09
6.24969e-07
-1.46369e-08
3.94678e-09
6.00278e-07
4.33853e-09
5.6816e-07
-1.88147e-08
1.4254e-08
-5.47748e-11
5.78303e-07
-1.82953e-08
1.04631e-08
-5.2487e-11
6.09703e-07
6.84044e-09
-3.72755e-11
6.33791e-07
3.34442e-09
-2.36775e-11
6.50028e-07
-3.68866e-11
-1.82723e-11
6.5817e-07
-3.42854e-09
-2.12049e-11
6.58165e-07
-6.90972e-09
-1.25784e-11
6.50007e-07
-1.05193e-08
-6.18649e-12
6.33774e-07
-1.42934e-08
-3.40774e-12
6.09689e-07
-1.67953e-12
5.78303e-07
-1.83232e-08
1.42495e-08
-4.38315e-09
5.78294e-07
-1.8286e-08
1.04774e-08
-3.98536e-09
6.09684e-07
6.8554e-09
-3.72862e-09
6.33777e-07
3.35597e-09
-3.51785e-09
6.50022e-07
-3.85188e-11
-3.40239e-09
6.58167e-07
-3.41862e-09
-3.40127e-09
6.58152e-07
-6.89586e-09
-3.50044e-09
6.50011e-07
-1.05116e-08
-3.69932e-09
6.33784e-07
-1.42865e-08
-3.94703e-09
6.09692e-07
-4.3367e-09
5.78302e-07
-1.83251e-08
1.46084e-08
-8.62288e-09
5.68136e-07
-1.8787e-08
1.07484e-08
-7.89632e-09
6.00257e-07
7.0577e-09
-7.43489e-09
6.24967e-07
3.47441e-09
-7.09493e-09
6.41652e-07
-3.40246e-11
-6.8951e-09
6.50022e-07
-3.52233e-09
-6.8813e-09
6.50018e-07
-7.09462e-09
-7.07055e-09
6.4165e-07
-1.07873e-08
-7.41881e-09
6.24971e-07
-1.46354e-08
-7.87231e-09
6.00272e-07
-8.60074e-09
5.6814e-07
-1.88149e-08
1.5115e-08
-1.28889e-08
5.48016e-07
-1.94421e-08
1.11854e-08
-1.18881e-08
5.81597e-07
7.41022e-09
-1.12206e-08
6.07448e-07
3.68045e-09
-1.07945e-08
6.24989e-07
-1.84512e-11
-1.05212e-08
6.33799e-07
-3.71673e-09
-1.05167e-08
6.33798e-07
-7.43598e-09
-1.07752e-08
6.24972e-07
-1.12203e-08
-1.12036e-08
6.07444e-07
-1.51411e-08
-1.18629e-08
5.81598e-07
-1.28481e-08
5.48002e-07
-1.94689e-08
1.60241e-08
-1.73079e-08
5.18345e-07
-2.05515e-08
1.18592e-08
-1.60605e-08
5.54159e-07
7.86741e-09
-1.51581e-08
5.81612e-07
3.93606e-09
-1.46442e-08
6.00278e-07
-1.3744e-11
-1.4293e-08
6.09704e-07
-3.9652e-09
-1.42888e-08
6.09702e-07
-7.89391e-09
-1.46288e-08
6.0027e-07
-1.1892e-08
-1.51371e-08
5.81604e-07
-1.60334e-08
-1.60302e-08
5.54165e-07
-1.72897e-08
5.18349e-07
-2.05773e-08
1.72977e-08
4.79391e-07
-2.1994e-08
-2.19906e-08
1.2876e-08
5.18341e-07
-2.0599e-08
8.61379e-09
5.48018e-07
-1.94874e-08
4.34615e-09
5.68146e-07
-1.88197e-08
1.14989e-13
5.783e-07
-1.83193e-08
-4.33812e-09
5.78305e-07
-1.83229e-08
-8.59871e-09
5.68154e-07
-1.8816e-08
-1.2872e-08
5.48023e-07
-1.94699e-08
-1.72807e-08
5.18365e-07
-2.05854e-08
4.794e-07
-2.19685e-08
-2.2005e-08
2.92844e-08
2.92655e-08
4.91308e-07
-3.52296e-08
-3.52028e-08
2.08431e-08
2.38469e-08
5.30524e-07
-2.75395e-08
1.36254e-08
2.16366e-08
5.59964e-07
-2.63394e-08
6.74158e-09
2.01565e-08
5.7968e-07
-2.4793e-08
8.91004e-11
1.95709e-08
5.89595e-07
-2.41897e-08
-6.57254e-09
1.95633e-08
5.89584e-07
-2.41853e-08
-1.34631e-08
2.0132e-08
5.79684e-07
-2.47798e-08
-2.07151e-08
2.16051e-08
5.59987e-07
-2.63269e-08
-2.91965e-08
2.37988e-08
5.30553e-07
-2.75216e-08
2.92038e-08
4.91327e-07
-3.5151e-08
-3.51824e-08
2.38735e-08
2.08188e-08
5.30533e-07
-2.75681e-08
1.78951e-08
1.78654e-08
5.66142e-07
1.20599e-08
1.62621e-08
5.92842e-07
6.1196e-09
1.54272e-08
6.10952e-07
9.49367e-11
1.50977e-08
6.20205e-07
-5.94602e-09
1.50847e-08
6.20218e-07
-1.19184e-08
1.53901e-08
6.10982e-07
-1.78043e-08
1.62145e-08
5.92866e-07
-2.3813e-08
1.78093e-08
5.66151e-07
2.07492e-08
5.30512e-07
-2.75327e-08
2.16588e-08
1.35926e-08
5.59969e-07
-2.63517e-08
1.62911e-08
1.20239e-08
5.92834e-07
1.10986e-08
1.10661e-08
6.17867e-07
5.70008e-09
1.06499e-08
6.35164e-07
7.34576e-11
1.04822e-08
6.44046e-07
-5.55053e-09
1.04704e-08
6.44058e-07
-1.09704e-08
1.0622e-08
6.35162e-07
-1.62046e-08
1.10304e-08
6.17865e-07
-2.16074e-08
1.19888e-08
5.92825e-07
1.35519e-08
5.59942e-07
-2.63337e-08
2.01872e-08
6.71784e-09
5.79662e-07
-2.48108e-08
1.54643e-08
6.09032e-09
6.10928e-07
1.06877e-08
5.67429e-09
6.35154e-07
5.53476e-09
5.50431e-09
6.51959e-07
6.48452e-11
5.42945e-09
6.60551e-07
-5.40317e-09
5.4343e-09
6.60541e-07
-1.05695e-08
5.50873e-09
6.51934e-07
-1.53867e-08
5.6609e-09
6.35155e-07
-2.0148e-08
6.06876e-09
6.10964e-07
6.68833e-09
5.79675e-07
-2.47977e-08
1.96011e-08
5.50984e-11
5.89567e-07
-2.42028e-08
1.51418e-08
6.03976e-11
6.20184e-07
1.05215e-08
4.91448e-11
6.44042e-07
5.46e-09
3.71244e-11
6.60553e-07
7.36471e-11
4.30557e-11
6.68946e-07
-5.31937e-09
5.04959e-11
6.68944e-07
-1.04053e-08
3.89363e-11
6.60556e-07
-1.5073e-08
2.82495e-11
6.44074e-07
-1.95754e-08
2.91682e-11
6.20237e-07
2.71502e-11
5.8959e-07
-2.41993e-08
1.96052e-08
-6.62106e-09
5.8958e-07
-2.42144e-08
1.51296e-08
-5.99704e-09
6.2021e-07
1.05048e-08
-5.59117e-09
6.4405e-07
5.46104e-09
-5.43363e-09
6.60537e-07
8.08456e-11
-5.35893e-09
6.6895e-07
-5.33426e-09
-5.35857e-09
6.68984e-07
-1.04266e-08
-5.44375e-09
6.60589e-07
-1.50813e-08
-5.6035e-09
6.4407e-07
-1.95752e-08
-6.01759e-09
6.20232e-07
-6.63568e-09
5.89581e-07
-2.41918e-08
2.01811e-08
-1.35217e-08
5.79674e-07
-2.48256e-08
1.54493e-08
-1.19586e-08
6.10956e-07
1.0672e-08
-1.10027e-08
6.35155e-07
5.53617e-09
-1.05911e-08
6.51947e-07
7.13541e-11
-1.04353e-08
6.60564e-07
-5.41501e-09
-1.04394e-08
6.60579e-07
-1.05819e-08
-1.06037e-08
6.51975e-07
-1.53883e-08
-1.0999e-08
6.35181e-07
-2.015e-08
-1.1972e-08
6.1099e-07
-1.35237e-08
5.79678e-07
-2.48015e-08
2.1656e-08
-2.07441e-08
5.5996e-07
-2.63788e-08
1.62683e-08
-1.78054e-08
5.92827e-07
1.10669e-08
-1.6203e-08
6.17857e-07
5.69014e-09
-1.53714e-08
6.35155e-07
6.83648e-11
-1.50692e-08
6.44052e-07
-5.57146e-09
-1.50727e-08
6.44067e-07
-1.09854e-08
-1.53876e-08
6.35174e-07
-1.62158e-08
-1.62145e-08
6.17891e-07
-2.1621e-08
-1.78289e-08
5.92862e-07
-2.07635e-08
5.59982e-07
-2.63565e-08
2.38591e-08
-2.91944e-08
5.3052e-07
-2.75848e-08
1.78684e-08
-2.37815e-08
5.66122e-07
1.20291e-08
-2.15854e-08
5.9283e-07
6.09382e-09
-2.01144e-08
6.1096e-07
6.62296e-11
-1.9547e-08
6.20213e-07
-5.97393e-09
-1.95532e-08
6.20225e-07
-1.19398e-08
-2.01424e-08
6.10991e-07
-1.78114e-08
-2.16132e-08
5.92873e-07
-2.38188e-08
-2.38246e-08
5.66163e-07
-2.92287e-08
5.30548e-07
-2.75529e-08
2.92484e-08
4.91347e-07
-3.51688e-08
-3.52219e-08
2.07889e-08
5.30529e-07
-2.75097e-08
1.35723e-08
5.59974e-07
-2.63223e-08
6.69294e-09
5.79686e-07
-2.47799e-08
4.89832e-11
5.89584e-07
-2.41821e-08
-6.61891e-09
5.89598e-07
-2.41785e-08
-1.35189e-08
5.79707e-07
-2.48006e-08
-2.07573e-08
5.59982e-07
-2.63314e-08
-2.92324e-08
5.30538e-07
-2.75325e-08
4.91338e-07
-3.52176e-08
-3.518e-08
3.82619e-08
3.82701e-08
5.01792e-07
-4.35146e-08
-4.35155e-08
2.90216e-08
3.31239e-08
5.42626e-07
-3.59826e-08
1.95637e-08
3.04438e-08
5.73698e-07
-3.47251e-08
9.67167e-09
2.76826e-08
5.94218e-07
-3.233e-08
-3.70739e-11
2.65016e-08
6.04307e-07
-3.1511e-08
-9.74585e-09
2.64956e-08
6.04306e-07
-3.1509e-08
-1.96156e-08
2.77082e-08
5.94206e-07
-3.23535e-08
-2.9051e-08
3.04625e-08
5.73706e-07
-3.47499e-08
-3.82693e-08
3.31433e-08
5.42647e-07
-3.60162e-08
3.83046e-08
5.01812e-07
-4.35043e-08
-4.35522e-08
3.31371e-08
2.90587e-08
5.42621e-07
-3.60118e-08
2.60966e-08
2.61268e-08
5.80186e-07
1.76415e-08
2.3463e-08
6.08278e-07
8.70158e-09
2.11259e-08
6.26446e-07
-3.96532e-11
2.00776e-08
6.35372e-07
-8.76488e-09
2.00693e-08
6.35375e-07
-1.76794e-08
2.1144e-08
6.26453e-07
-2.61128e-08
2.34587e-08
6.08302e-07
-3.31444e-08
2.61028e-08
5.80232e-07
2.90517e-08
5.4266e-07
-3.60227e-08
3.04531e-08
1.9635e-08
5.73699e-07
-3.47593e-08
2.34345e-08
1.76991e-08
6.08278e-07
1.54803e-08
1.55344e-08
6.33749e-07
7.57305e-09
1.39378e-08
6.5026e-07
-3.79059e-11
1.32131e-08
6.58521e-07
-7.64356e-09
1.32214e-08
6.58505e-07
-1.55269e-08
1.39458e-08
6.50248e-07
-2.34536e-08
1.55091e-08
6.33736e-07
-3.04426e-08
1.76363e-08
6.08287e-07
1.95678e-08
5.73715e-07
-3.47373e-08
2.77106e-08
9.75194e-09
5.94224e-07
-3.23858e-08
2.111e-08
8.76155e-09
6.26465e-07
1.38962e-08
7.63199e-09
6.50269e-07
6.84693e-09
6.8865e-09
6.66053e-07
-2.92063e-11
6.5549e-09
6.74097e-07
-6.91209e-09
6.5521e-09
6.74095e-07
-1.39677e-08
6.86454e-09
6.66071e-07
-2.11557e-08
7.59428e-09
6.50258e-07
-2.76928e-08
8.70134e-09
6.26433e-07
9.68524e-09
5.94179e-07
-3.23209e-08
2.64923e-08
7.67991e-12
6.04346e-07
-3.15358e-08
2.00313e-08
-5.79883e-12
6.35419e-07
1.31514e-08
-3.12836e-12
6.58553e-07
6.5113e-09
-1.47293e-11
6.74101e-07
-3.07222e-11
-1.48281e-11
6.82054e-07
-6.59214e-09
-4.78795e-11
6.82104e-07
-1.32592e-08
-6.53615e-11
6.74144e-07
-2.00917e-08
-4.49141e-11
6.58549e-07
-2.64869e-08
-4.60055e-11
6.35384e-07
-2.78986e-11
6.04294e-07
-3.14784e-08
2.65015e-08
-9.72434e-09
6.04339e-07
-3.15283e-08
2.00439e-08
-8.75297e-09
6.35425e-07
1.31616e-08
-7.65253e-09
6.58577e-07
6.49747e-09
-6.92984e-09
6.74115e-07
-6.48486e-11
-6.59505e-09
6.82086e-07
-6.60587e-09
-6.62185e-09
6.8209e-07
-1.32393e-08
-6.95292e-09
6.74111e-07
-2.00721e-08
-7.67714e-09
6.58538e-07
-2.64724e-08
-8.78685e-09
6.35374e-07
-9.75182e-09
6.04304e-07
-3.14604e-08
2.76826e-08
-1.96265e-08
5.94242e-07
-3.23469e-08
2.10809e-08
-1.76895e-08
6.26489e-07
1.38698e-08
-1.55621e-08
6.5028e-07
6.81666e-09
-1.39839e-08
6.66055e-07
-7.86846e-11
-1.32646e-08
6.74125e-07
-6.94281e-09
-1.32671e-08
6.7409e-07
-1.3963e-08
-1.39861e-08
6.66031e-07
-2.11355e-08
-1.55786e-08
6.50252e-07
-2.76621e-08
-1.76985e-08
6.2643e-07
-1.96367e-08
5.94207e-07
-3.22984e-08
3.04321e-08
-2.90948e-08
5.73741e-07
-3.47415e-08
2.33928e-08
-2.61508e-08
6.08329e-07
1.54459e-08
-2.34784e-08
6.33719e-07
7.55866e-09
-2.11562e-08
6.50219e-07
-7.1614e-11
-2.01056e-08
6.58522e-07
-7.67293e-09
-2.01093e-08
6.58519e-07
-1.55435e-08
-2.11825e-08
6.5024e-07
-2.34426e-08
-2.35127e-08
6.3373e-07
-3.04237e-08
-2.61619e-08
6.08305e-07
-2.91112e-08
5.73752e-07
-3.47242e-08
3.31184e-08
-3.83456e-08
5.4266e-07
-3.60073e-08
2.6045e-08
-3.31916e-08
5.80235e-07
1.75883e-08
-3.0465e-08
6.08277e-07
8.66387e-09
-2.77173e-08
6.2644e-07
-8.50184e-11
-2.65195e-08
6.35375e-07
-8.80535e-09
-2.65309e-08
6.35376e-07
-1.77016e-08
-2.773e-08
6.26437e-07
-2.61177e-08
-3.04935e-08
6.08272e-07
-3.31342e-08
-3.31892e-08
5.80213e-07
-3.83576e-08
5.42666e-07
-3.60055e-08
3.82657e-08
5.01809e-07
-4.35698e-08
-4.35097e-08
2.90036e-08
5.42662e-07
-3.60505e-08
1.95274e-08
5.73738e-07
-3.47503e-08
9.63259e-09
5.94225e-07
-3.23575e-08
-1.00621e-10
6.0431e-07
-3.15187e-08
-9.80078e-09
6.04298e-07
-3.15242e-08
-1.96575e-08
5.94175e-07
-3.23411e-08
-2.90808e-08
5.73659e-07
-3.47476e-08
-3.83174e-08
5.42609e-07
-3.6029e-08
5.01801e-07
-4.35443e-08
-4.35847e-08
3.4273e-08
3.42641e-08
5.11531e-07
-3.91344e-08
-3.9138e-08
2.68397e-08
3.11913e-08
5.52938e-07
-3.4075e-08
1.88575e-08
3.06228e-08
5.85181e-07
-3.41276e-08
9.63639e-09
2.90214e-08
6.06964e-07
-3.25507e-08
1.69405e-12
2.83258e-08
6.17746e-07
-3.21296e-08
-9.65484e-09
2.83098e-08
6.17782e-07
-3.21271e-08
-1.88706e-08
2.90281e-08
6.06965e-07
-3.25675e-08
-2.68483e-08
3.06257e-08
5.85173e-07
-3.41152e-08
-3.42745e-08
3.12316e-08
5.52923e-07
-3.40834e-08
3.43305e-08
5.11505e-07
-3.91409e-08
-3.91573e-08
3.11971e-08
2.68133e-08
5.52928e-07
-3.40618e-08
2.54657e-08
2.5445e-08
5.91667e-07
1.80822e-08
2.46241e-08
6.21668e-07
9.21926e-09
2.30923e-08
6.41234e-07
-2.14371e-11
2.22909e-08
6.50646e-07
-9.25206e-09
2.22879e-08
6.50626e-07
-1.80813e-08
2.31363e-08
6.41188e-07
-2.54601e-08
2.46628e-08
6.21643e-07
-3.11838e-08
2.55191e-08
5.9167e-07
2.68966e-08
5.52967e-07
-3.40718e-08
3.06132e-08
1.88148e-08
5.85177e-07
-3.40916e-08
2.46333e-08
1.80443e-08
6.21658e-07
1.70044e-08
1.6962e-08
6.49034e-07
8.52815e-09
1.56503e-08
6.6618e-07
-4.37485e-13
1.49256e-08
6.74414e-07
-8.52729e-09
1.49389e-08
6.74373e-07
-1.69862e-08
1.56863e-08
6.6616e-07
-2.46101e-08
1.70105e-08
6.49008e-07
-3.05885e-08
1.80939e-08
6.21693e-07
1.88716e-08
5.85234e-07
-3.40798e-08
2.90102e-08
9.58441e-09
6.06977e-07
-3.25303e-08
2.30966e-08
9.17534e-09
6.41249e-07
1.56823e-08
8.47565e-09
6.66174e-07
7.81596e-09
7.78613e-09
6.81785e-07
1.34138e-11
7.387e-09
6.8944e-07
-7.78985e-09
7.38881e-09
6.89441e-07
-1.56554e-08
7.78353e-09
6.81839e-07
-2.30829e-08
8.51885e-09
6.66167e-07
-2.89811e-08
9.22131e-09
6.41205e-07
9.64003e-09
6.06961e-07
-3.2535e-08
2.83018e-08
-4.06159e-11
6.17776e-07
-3.21055e-08
2.22827e-08
-5.45365e-11
6.50657e-07
1.4964e-08
-2.62396e-11
6.74379e-07
7.42392e-09
3.39325e-12
6.89416e-07
4.29881e-12
-6.05162e-12
6.96866e-07
-7.40436e-09
8.00921e-12
6.96891e-07
-1.49195e-08
2.01934e-11
6.89427e-07
-2.22522e-08
3.22975e-11
6.74358e-07
-2.82738e-08
1.00871e-11
6.50609e-07
8.63519e-12
6.17763e-07
-3.21106e-08
2.82908e-08
-9.6422e-09
6.17742e-07
-3.20849e-08
2.2308e-08
-9.23442e-09
6.50583e-07
1.49967e-08
-8.5032e-09
6.74362e-07
7.42877e-09
-7.77438e-09
6.89452e-07
5.26009e-12
-7.37718e-09
6.96879e-07
-7.37562e-09
-7.35331e-09
6.96836e-07
-1.48996e-08
-7.73712e-09
6.89388e-07
-2.22526e-08
-8.46664e-09
6.74387e-07
-2.82841e-08
-9.18746e-09
6.50607e-07
-9.61521e-09
6.17778e-07
-3.21294e-08
2.90031e-08
-1.88264e-08
6.06938e-07
-3.25125e-08
2.31383e-08
-1.80406e-08
6.41169e-07
1.57281e-08
-1.6953e-08
6.66143e-07
7.83008e-09
-1.56427e-08
6.81819e-07
3.76021e-11
-1.48898e-08
6.89431e-07
-7.76036e-09
-1.48803e-08
6.89409e-07
-1.5657e-08
-1.56143e-08
6.81803e-07
-2.31007e-08
-1.69437e-08
6.66174e-07
-2.89999e-08
-1.80142e-08
6.41158e-07
-1.87972e-08
6.06932e-07
-3.25385e-08
3.06139e-08
-2.67994e-08
5.85165e-07
-3.40663e-08
2.46847e-08
-2.54289e-08
6.21646e-07
1.70675e-08
-2.46107e-08
6.48996e-07
8.56279e-09
-2.30981e-08
6.66169e-07
3.06066e-11
-2.22562e-08
6.74412e-07
-8.48914e-09
-2.22306e-08
6.74389e-07
-1.6977e-08
-2.30578e-08
6.66178e-07
-2.4626e-08
-2.45707e-08
6.49014e-07
-3.06001e-08
-2.54053e-08
6.21665e-07
-2.67529e-08
5.85178e-07
-3.40836e-08
3.12091e-08
-3.42449e-08
5.5294e-07
-3.40463e-08
2.55145e-08
-3.11838e-08
5.91679e-07
1.8132e-08
-3.06125e-08
6.21662e-07
9.28029e-09
-2.90122e-08
6.41209e-07
5.18592e-11
-2.82948e-08
6.50639e-07
-9.18133e-09
-2.82711e-08
6.50649e-07
-1.80419e-08
-2.8974e-08
6.41215e-07
-2.54594e-08
-3.05631e-08
6.21689e-07
-3.11826e-08
-3.11623e-08
5.91701e-07
-3.41906e-08
5.52956e-07
-3.40345e-08
3.43016e-08
5.11491e-07
-3.90995e-08
-3.91259e-08
2.68941e-08
5.52932e-07
-3.40545e-08
1.89263e-08
5.85181e-07
-3.40885e-08
9.71914e-09
6.06963e-07
-3.2551e-08
6.90002e-11
6.1779e-07
-3.21216e-08
-9.5807e-09
6.17802e-07
-3.21189e-08
-1.88005e-08
6.06956e-07
-3.25382e-08
-2.6821e-08
5.85203e-07
-3.40889e-08
-3.4252e-08
5.52951e-07
-3.40666e-08
5.11529e-07
-3.9089e-08
-3.90739e-08
2.43627e-08
2.43309e-08
5.23369e-07
-3.02753e-08
-3.02374e-08
1.82228e-08
2.17221e-08
5.63825e-07
-2.64826e-08
1.2782e-08
2.26796e-08
5.94917e-07
-2.69724e-08
6.68474e-09
2.30498e-08
6.16531e-07
-2.65243e-08
5.79137e-11
2.34156e-08
6.276e-07
-2.66403e-08
-6.57601e-09
2.34206e-08
6.27644e-07
-2.66508e-08
-1.26836e-08
2.30124e-08
6.16565e-07
-2.64989e-08
-1.81518e-08
2.2646e-08
5.94943e-07
-2.69469e-08
-2.43189e-08
2.16738e-08
5.63845e-07
-2.64298e-08
2.42791e-08
5.23365e-07
-3.02515e-08
-3.02083e-08
2.17352e-08
1.81992e-08
5.63808e-07
-2.64928e-08
1.70265e-08
1.70127e-08
6.0108e-07
1.26133e-08
1.83849e-08
6.30375e-07
6.82817e-09
1.9156e-08
6.50928e-07
4.47471e-11
1.95367e-08
6.61305e-07
-6.74514e-09
1.95415e-08
6.61289e-07
-1.25608e-08
1.91154e-08
6.50896e-07
-1.69838e-08
1.83601e-08
6.30352e-07
-2.16936e-08
1.69811e-08
6.01067e-07
1.81452e-08
5.63841e-07
-2.64461e-08
2.26957e-08
1.27751e-08
5.9488e-07
-2.69691e-08
1.84117e-08
1.26238e-08
6.30337e-07
1.37026e-08
1.3689e-08
6.58428e-07
7.34088e-09
1.41286e-08
6.77569e-07
4.83577e-11
1.42496e-08
6.86994e-07
-7.25606e-09
1.42305e-08
6.86993e-07
-1.36397e-08
1.40846e-08
6.77576e-07
-1.83771e-08
1.36467e-08
6.58454e-07
-2.26816e-08
1.25853e-08
6.30387e-07
1.27131e-08
5.94937e-07
-2.69632e-08
2.30339e-08
6.68218e-09
6.16539e-07
-2.65043e-08
1.91478e-08
6.83755e-09
6.50932e-07
1.41153e-08
7.32807e-09
6.77572e-07
7.43975e-09
7.45316e-09
6.95129e-07
2.76504e-11
7.4463e-09
7.03648e-07
-7.38981e-09
7.43148e-09
7.03657e-07
-1.40642e-08
7.41605e-09
6.95178e-07
-1.91196e-08
7.27061e-09
6.77597e-07
-2.30411e-08
6.77214e-09
6.50941e-07
6.61423e-09
6.16558e-07
-2.6532e-08
2.34406e-08
6.01369e-11
6.27625e-07
-2.66672e-08
1.95646e-08
5.16192e-11
6.61317e-07
1.42636e-08
3.38861e-11
6.86981e-07
7.44761e-09
2.99585e-11
7.03658e-07
1.23919e-12
-7.59602e-12
7.11762e-07
-7.4174e-09
1.41139e-11
7.11731e-07
-1.42087e-08
-4.1193e-12
7.03641e-07
-1.95349e-08
-2.14615e-11
6.86968e-07
-2.34282e-08
-1.48737e-11
6.61289e-07
-1.3376e-11
6.27615e-07
-2.66603e-08
2.34184e-08
-6.58836e-09
6.27645e-07
-2.6666e-08
1.9533e-08
-6.75618e-09
6.61268e-07
1.42306e-08
-7.25557e-09
6.8695e-07
7.43064e-09
-7.40308e-09
7.03682e-07
1.7184e-11
-7.44951e-09
7.11728e-07
-7.41951e-09
-7.43989e-09
7.11724e-07
-1.42289e-08
-7.44857e-09
7.03651e-07
-1.95344e-08
-7.30813e-09
6.86981e-07
-2.34279e-08
-6.81028e-09
6.61294e-07
-6.64961e-09
6.27658e-07
-2.66817e-08
2.30476e-08
-1.27115e-08
6.16567e-07
-2.65452e-08
1.91366e-08
-1.25803e-08
6.50903e-07
1.40841e-08
-1.36432e-08
6.77579e-07
7.40035e-09
-1.40983e-08
6.95195e-07
2.7028e-12
-1.42496e-08
7.03627e-07
-7.41586e-09
-1.42501e-08
7.03643e-07
-1.40884e-08
-1.41309e-08
6.95162e-07
-1.91199e-08
-1.36669e-08
6.77568e-07
-2.30434e-08
-1.2636e-08
6.5091e-07
-1.27663e-08
6.16548e-07
-2.65383e-08
2.26833e-08
-1.81593e-08
5.94924e-07
-2.69943e-08
1.83784e-08
-1.69955e-08
6.3036e-07
1.3628e-08
-1.83863e-08
6.58481e-07
7.24037e-09
-1.91415e-08
6.77603e-07
-1.32425e-11
-1.9552e-08
6.86976e-07
-7.28973e-09
-1.95382e-08
6.86947e-07
-1.36516e-08
-1.91464e-08
6.77559e-07
-1.83826e-08
-1.83623e-08
6.58439e-07
-2.26906e-08
-1.70273e-08
6.30358e-07
-1.81773e-08
5.94876e-07
-2.6965e-08
2.16896e-08
-2.43203e-08
5.63877e-07
-2.64734e-08
1.69761e-08
-2.17009e-08
6.01104e-07
1.25438e-08
-2.26685e-08
6.30369e-07
6.74493e-09
-2.30148e-08
6.50882e-07
1.22455e-12
-2.3421e-08
6.61256e-07
-6.7742e-09
-2.34056e-08
6.61281e-07
-1.25712e-08
-2.30397e-08
6.50906e-07
-1.69911e-08
-2.266e-08
6.30409e-07
-2.17145e-08
-2.17339e-08
6.01119e-07
-2.43016e-08
5.63838e-07
-2.64772e-08
2.43011e-08
5.23379e-07
-3.02588e-08
-3.02524e-08
1.81437e-08
5.63832e-07
-2.64437e-08
1.26743e-08
5.94911e-07
-2.69391e-08
6.56697e-09
6.16522e-07
-2.64826e-08
-4.96897e-12
6.27577e-07
-2.66222e-08
-6.60218e-09
6.27614e-07
-2.66193e-08
-1.26989e-08
6.16529e-07
-2.65159e-08
-1.81634e-08
5.94964e-07
-2.69426e-08
-2.43213e-08
5.63853e-07
-2.64777e-08
5.23366e-07
-3.02669e-08
-3.01993e-08
2.22613e-08
2.22938e-08
5.36721e-07
-2.89426e-08
-2.89531e-08
1.56137e-08
1.85734e-08
5.76861e-07
-2.49541e-08
1.00739e-08
1.82465e-08
6.06265e-07
-2.40405e-08
4.98522e-09
1.8569e-08
6.26529e-07
-2.3474e-08
-9.17479e-11
1.9085e-08
6.37131e-07
-2.35443e-08
-5.13798e-09
1.91317e-08
6.37133e-07
-2.35766e-08
-1.0221e-08
1.85662e-08
6.2654e-07
-2.34635e-08
-1.57194e-08
1.82882e-08
6.06242e-07
-2.40907e-08
-2.23145e-08
1.85575e-08
5.76834e-07
-2.4951e-08
2.22851e-08
5.36695e-07
-2.89554e-08
-2.89774e-08
1.85449e-08
1.56358e-08
5.76867e-07
-2.49376e-08
1.29779e-08
1.29883e-08
6.12215e-07
8.96226e-09
1.36662e-08
6.38963e-07
4.77903e-09
1.48737e-08
6.58808e-07
-7.08606e-11
1.57455e-08
6.69483e-07
-4.92014e-09
1.57798e-08
6.69485e-07
-9.1044e-09
1.48504e-08
6.58789e-07
-1.30571e-08
1.37071e-08
6.38895e-07
-1.85754e-08
1.29949e-08
6.12146e-07
1.56444e-08
5.76841e-07
-2.49386e-08
1.82435e-08
1.00897e-08
6.0626e-07
-2.40637e-08
1.36613e-08
8.972e-09
6.38942e-07
1.01334e-08
1.01653e-08
6.65453e-07
5.54481e-09
1.13451e-08
6.85682e-07
-6.57193e-11
1.20709e-08
6.96274e-07
-5.67211e-09
1.20675e-08
6.9631e-07
-1.02532e-08
1.13462e-08
6.8565e-07
-1.37547e-08
1.01912e-08
6.6547e-07
-1.83055e-08
9.03021e-09
6.38895e-07
1.01525e-08
6.06216e-07
-2.40899e-08
1.85414e-08
4.98883e-09
6.26551e-07
-2.34602e-08
1.4857e-08
4.78394e-09
6.58809e-07
1.13145e-08
5.56836e-09
6.857e-07
6.17221e-09
6.18731e-09
7.05429e-07
-7.38155e-11
6.5779e-09
7.1538e-07
-6.31604e-09
6.57751e-09
7.15386e-07
-1.14172e-08
6.2461e-09
7.05379e-07
-1.49132e-08
5.6008e-09
6.85684e-07
-1.85988e-08
4.85193e-09
6.58802e-07
5.05745e-09
6.26536e-07
-2.34799e-08
1.91155e-08
-6.69217e-11
6.37127e-07
-2.35681e-08
1.57733e-08
-5.2086e-11
6.69492e-07
1.20571e-08
-6.1875e-11
6.96324e-07
6.55343e-09
-7.3237e-11
7.15418e-07
-5.70824e-11
-4.84063e-11
7.24994e-07
-6.65347e-09
-2.90105e-11
7.24932e-07
-1.21289e-08
-2.22895e-11
7.15393e-07
-1.5827e-08
-3.35387e-11
6.96298e-07
-1.91437e-08
-2.00963e-12
6.69458e-07
-2.03746e-12
6.37091e-07
-2.35598e-08
1.91175e-08
-5.13209e-09
6.37163e-07
-2.35739e-08
1.5749e-08
-4.91314e-09
6.69492e-07
1.2028e-08
-5.68285e-09
6.96286e-07
6.55978e-09
-6.30277e-09
7.15378e-07
-2.35094e-11
-6.66129e-09
7.24925e-07
-6.65529e-09
-6.64448e-09
7.24971e-07
-1.21463e-08
-6.313e-09
7.15432e-07
-1.58236e-08
-5.64998e-09
6.9627e-07
-1.91456e-08
-4.88462e-09
6.69492e-07
-5.06895e-09
6.37138e-07
-2.35758e-08
1.85771e-08
-1.0238e-08
6.26573e-07
-2.34816e-08
1.48619e-08
-9.11747e-09
6.58822e-07
1.13403e-08
-1.02733e-08
6.85692e-07
6.22044e-09
-1.14148e-08
7.0542e-07
-3.88204e-11
-1.2151e-08
7.15379e-07
-6.30641e-09
-1.21252e-08
7.15388e-07
-1.13967e-08
-1.14359e-08
7.05378e-07
-1.48839e-08
-1.02233e-08
6.85632e-07
-1.85892e-08
-9.1231e-09
6.58855e-07
-1.02004e-08
6.2658e-07
-2.35009e-08
1.82686e-08
-1.5743e-08
6.06253e-07
-2.40919e-08
1.36818e-08
-1.30959e-08
6.38921e-07
1.0161e-08
-1.37633e-08
6.65495e-07
5.58031e-09
-1.49107e-08
6.85676e-07
-2.04773e-11
-1.58321e-08
6.96263e-07
-5.6633e-09
-1.58242e-08
6.96278e-07
-1.02373e-08
-1.49354e-08
6.85628e-07
-1.37335e-08
-1.3732e-08
6.65435e-07
-1.82932e-08
-1.30861e-08
6.38883e-07
-1.57109e-08
6.06207e-07
-2.40963e-08
1.85585e-08
-2.23571e-08
5.76863e-07
-2.49337e-08
1.30299e-08
-1.86282e-08
6.12173e-07
9.04008e-09
-1.83253e-08
6.38913e-07
4.84375e-09
-1.8604e-08
6.5877e-07
-2.11756e-11
-1.91682e-08
6.69454e-07
-4.91166e-09
-1.91555e-08
6.69493e-07
-9.09426e-09
-1.8632e-08
6.58789e-07
-1.30364e-08
-1.82965e-08
6.38907e-07
-1.85683e-08
-1.86103e-08
6.12152e-07
-2.23235e-08
5.76846e-07
-2.49635e-08
2.23318e-08
5.36672e-07
-2.90085e-08
-2.89727e-08
1.57201e-08
5.76809e-07
-2.50022e-08
1.0168e-08
6.06274e-07
-2.41351e-08
5.03411e-09
6.26559e-07
-2.35073e-08
-2.27091e-11
6.37059e-07
-2.35853e-08
-5.10074e-09
6.37086e-07
-2.35525e-08
-1.0216e-08
6.26512e-07
-2.35014e-08
-1.57183e-08
6.06251e-07
-2.40641e-08
-2.23334e-08
5.76829e-07
-2.49729e-08
5.36698e-07
-2.90214e-08
-2.89764e-08
2.91069e-08
2.91518e-08
5.47435e-07
-3.44817e-08
-3.44995e-08
2.19345e-08
2.54246e-08
5.89563e-07
-3.0947e-08
1.41412e-08
2.28162e-08
6.19774e-07
-2.85289e-08
6.84363e-09
2.11004e-08
6.39664e-07
-2.69394e-08
2.59218e-11
2.0614e-08
6.49786e-07
-2.64541e-08
-6.76061e-09
2.06247e-08
6.4974e-07
-2.64443e-08
-1.40631e-08
2.11074e-08
6.39643e-07
-2.69161e-08
-2.18651e-08
2.28176e-08
6.19757e-07
-2.85291e-08
-2.9061e-08
2.54084e-08
5.89579e-07
-3.09631e-08
2.91009e-08
5.4746e-07
-3.44478e-08
-3.44781e-08
2.54106e-08
2.19577e-08
5.89603e-07
-3.09481e-08
1.86222e-08
1.86126e-08
6.25811e-07
1.18366e-08
1.65234e-08
6.52033e-07
5.77934e-09
1.54472e-08
6.70511e-07
7.43837e-11
1.5341e-08
6.80459e-07
-5.63951e-09
1.53387e-08
6.8049e-07
-1.17171e-08
1.54067e-08
6.70568e-07
-1.85237e-08
1.6487e-08
6.52025e-07
-2.53595e-08
1.85579e-08
6.25828e-07
2.19019e-08
5.89601e-07
-3.09159e-08
2.2802e-08
1.41318e-08
6.19831e-07
-2.85445e-08
1.65154e-08
1.1797e-08
6.52042e-07
1.07639e-08
1.07682e-08
6.76971e-07
5.40438e-09
1.04989e-08
6.95988e-07
3.39028e-11
1.06924e-08
7.06288e-07
-5.32404e-09
1.06738e-08
7.06319e-07
-1.067e-08
1.04677e-08
6.95933e-07
-1.64258e-08
1.07383e-08
6.76975e-07
-2.27571e-08
1.17689e-08
6.52012e-07
1.41136e-08
6.19779e-07
-2.85273e-08
2.11069e-08
6.83307e-09
6.39673e-07
-2.69349e-08
1.54695e-08
5.73909e-09
6.70497e-07
1.0535e-08
5.41356e-09
6.95985e-07
5.48175e-09
5.44208e-09
7.15542e-07
3.23204e-11
5.63964e-09
7.2588e-07
-5.40003e-09
5.62111e-09
7.25863e-07
-1.0428e-08
5.47335e-09
7.15403e-07
-1.53676e-08
5.40712e-09
6.95956e-07
-2.10638e-08
5.72611e-09
6.70531e-07
6.80404e-09
6.39685e-07
-2.69075e-08
2.06036e-08
3.41593e-11
6.49737e-07
-2.64162e-08
1.5351e-08
5.45686e-11
6.80429e-07
1.06989e-08
4.45937e-11
7.06335e-07
5.64659e-09
2.34896e-11
7.25889e-07
4.53244e-11
5.35848e-11
7.36181e-07
-5.55106e-09
3.36009e-11
7.36112e-07
-1.06197e-08
4.45111e-11
7.2588e-07
-1.52891e-08
2.90798e-11
7.06345e-07
-2.05839e-08
1.55405e-11
6.80463e-07
-4.01127e-12
6.49746e-07
-2.64318e-08
2.06224e-08
-6.7407e-09
6.49733e-07
-2.64268e-08
1.53539e-08
-5.63744e-09
6.80462e-07
1.06912e-08
-5.32515e-09
7.06311e-07
5.64274e-09
-5.37128e-09
7.25809e-07
4.45756e-11
-5.53307e-09
7.36111e-07
-5.56551e-09
-5.52651e-09
7.36128e-07
-1.06387e-08
-5.38514e-09
7.2592e-07
-1.53222e-08
-5.33337e-09
7.06306e-07
-2.06212e-08
-5.70261e-09
6.80502e-07
-6.7836e-09
6.49736e-07
-2.64432e-08
2.10824e-08
-1.40343e-08
6.39656e-07
-2.68843e-08
1.54289e-08
-1.17004e-08
6.70538e-07
1.05124e-08
-1.06614e-08
6.95949e-07
5.49404e-09
-1.03846e-08
7.15444e-07
3.70552e-11
-1.05971e-08
7.25898e-07
-5.41186e-09
-1.05774e-08
7.25877e-07
-1.04466e-08
-1.04213e-08
7.15448e-07
-1.5407e-08
-1.06795e-08
6.95941e-07
-2.1094e-08
-1.17765e-08
6.70615e-07
-1.4089e-08
6.39707e-07
-2.69275e-08
2.27853e-08
-2.18325e-08
6.19774e-07
-2.85118e-08
1.64888e-08
-1.84783e-08
6.51991e-07
1.07695e-08
-1.63864e-08
6.76943e-07
5.43658e-09
-1.53249e-08
6.9594e-07
4.61959e-11
-1.52582e-08
7.06314e-07
-5.36495e-09
-1.52716e-08
7.06381e-07
-1.07365e-08
-1.5383e-08
6.95951e-07
-1.6498e-08
-1.64495e-08
6.76952e-07
-2.28065e-08
-1.85585e-08
6.51987e-07
-2.19083e-08
6.19789e-07
-2.85612e-08
2.53955e-08
-2.89964e-08
5.8956e-07
-3.09258e-08
1.86008e-08
-2.52939e-08
6.25773e-07
1.18262e-08
-2.27379e-08
6.52037e-07
5.7615e-09
-2.10493e-08
6.70554e-07
2.00022e-11
-2.05821e-08
6.80517e-07
-5.73032e-09
-2.05747e-08
6.80543e-07
-1.18017e-08
-2.10765e-08
6.70562e-07
-1.85795e-08
-2.27605e-08
6.51988e-07
-2.53778e-08
-2.53745e-08
6.25764e-07
-2.91078e-08
5.8959e-07
-3.09222e-08
2.90727e-08
5.47443e-07
-3.43929e-08
-3.44454e-08
2.19035e-08
5.89576e-07
-3.08925e-08
1.41245e-08
6.19865e-07
-2.85434e-08
6.83301e-09
6.39733e-07
-2.69316e-08
1.80902e-11
6.49736e-07
-2.64534e-08
-6.81234e-09
6.49749e-07
-2.64181e-08
-1.4143e-08
6.39693e-07
-2.69281e-08
-2.19643e-08
6.19813e-07
-2.85059e-08
-2.91425e-08
5.8957e-07
-3.09305e-08
5.47424e-07
-3.44877e-08
-3.44831e-08
3.47354e-08
3.4751e-08
5.51783e-07
-3.69185e-08
-3.69378e-08
2.8502e-08
3.31577e-08
5.98211e-07
-3.55639e-08
1.90855e-08
2.95709e-08
6.32533e-07
-3.29149e-08
9.29815e-09
2.59401e-08
6.54115e-07
-3.06035e-08
-1.62566e-11
2.43052e-08
6.64435e-07
-2.9642e-08
-9.30016e-09
2.42665e-08
6.64334e-07
-2.95763e-08
-1.90759e-08
2.5996e-08
6.54031e-07
-3.06158e-08
-2.85192e-08
2.95516e-08
6.32509e-07
-3.28568e-08
-3.47797e-08
3.32168e-08
5.98223e-07
-3.56006e-08
3.4725e-08
5.51798e-07
-3.69591e-08
-3.68878e-08
3.31985e-08
2.85249e-08
5.98239e-07
-3.56014e-08
2.64301e-08
2.64112e-08
6.39332e-07
1.67267e-08
2.23485e-08
6.68958e-07
7.79454e-09
1.85028e-08
6.8688e-07
3.43959e-11
1.68849e-08
6.95639e-07
-7.72497e-09
1.68502e-08
6.9567e-07
-1.66757e-08
1.85195e-08
6.86994e-07
-2.643e-08
2.22978e-08
6.69023e-07
-3.32283e-08
2.64055e-08
6.3943e-07
2.84822e-08
5.98223e-07
-3.56014e-08
2.95659e-08
1.90884e-08
6.32596e-07
-3.28994e-08
2.2334e-08
1.66971e-08
6.68977e-07
1.35312e-08
1.35282e-08
6.94605e-07
6.16468e-09
1.10275e-08
7.10831e-07
-1.42325e-11
1.0063e-08
7.19279e-07
-6.17666e-09
1.00595e-08
7.19266e-07
-1.35282e-08
1.10274e-08
7.10785e-07
-2.23117e-08
1.35192e-08
6.94543e-07
-2.95768e-08
1.66611e-08
6.69014e-07
1.90668e-08
6.32557e-07
-3.29334e-08
2.60047e-08
9.32578e-09
6.54067e-07
-3.06365e-08
1.85495e-08
7.79303e-09
6.86845e-07
1.10842e-08
6.18567e-09
7.108e-07
5.1423e-09
5.10933e-09
7.27406e-07
1.20695e-11
4.70047e-09
7.36373e-07
-5.0986e-09
4.69059e-09
7.36332e-07
-1.10538e-08
5.08748e-09
7.27293e-07