/*--------------------------------*- C++ -*----------------------------------*\
| =========                 |                                                 |
| \\      /  F ield         | OpenFOAM: The Open Source CFD Toolbox           |
|  \\    /   O peration     | Version:  2406                                  |
|   \\  /    A nd           | Website:  www.openfoam.com                      |
|    \\/     M anipulation  |                                                 |
\*---------------------------------------------------------------------------*/
FoamFile
{
    version     2.0;
    format      ascii;
    arch        "LSB;label=32;scalar=64";
    class       volVectorField;
    location    "0.5";
    object      U;
}
// * * * * * * * * * * * * * * * * * * * * * * * * * * * * * * * * * * * * * //

dimensions      [0 1 -1 0 0 0 0];

internalField   nonuniform List<vector> 
15000
(
(0.00014084 0.000141249 0.00999508)
(0.000104235 0.00013361 0.0100001)
(7.19305e-05 0.000123552 0.0100101)
(4.25205e-05 0.000117522 0.0100174)
(1.39354e-05 0.000113636 0.0100199)
(-1.47025e-05 0.000113645 0.0100196)
(-4.32538e-05 0.000117506 0.0100173)
(-7.27129e-05 0.00012348 0.0100101)
(-0.000104891 0.000133701 0.0100001)
(-0.000141462 0.00014111 0.00999514)
(0.000133502 0.000104396 0.00999972)
(9.34454e-05 9.35562e-05 0.0100106)
(6.50021e-05 8.7742e-05 0.0100226)
(3.80211e-05 8.37469e-05 0.0100258)
(1.22443e-05 8.13004e-05 0.0100248)
(-1.30084e-05 8.13296e-05 0.0100247)
(-3.87025e-05 8.3816e-05 0.0100256)
(-6.55846e-05 8.78111e-05 0.0100226)
(-9.38401e-05 9.37443e-05 0.0100114)
(-0.00013373 0.000104595 0.0100006)
(0.000123359 7.20359e-05 0.01001)
(8.75805e-05 6.51169e-05 0.0100226)
(6.01526e-05 6.02445e-05 0.0100292)
(3.4857e-05 5.6733e-05 0.0100255)
(1.11575e-05 5.47731e-05 0.0100215)
(-1.18057e-05 5.48635e-05 0.0100214)
(-3.54948e-05 5.69023e-05 0.0100258)
(-6.07134e-05 6.04578e-05 0.0100293)
(-8.79956e-05 6.53592e-05 0.010023)
(-0.000123645 7.23146e-05 0.0100106)
(0.000117323 4.25129e-05 0.0100179)
(8.35566e-05 3.81248e-05 0.0100266)
(5.65786e-05 3.49357e-05 0.010026)
(3.24458e-05 3.25473e-05 0.0100189)
(1.03703e-05 3.12786e-05 0.0100143)
(-1.08906e-05 3.13249e-05 0.0100146)
(-3.30174e-05 3.26327e-05 0.0100196)
(-5.70791e-05 3.50735e-05 0.0100259)
(-8.39484e-05 3.83337e-05 0.0100261)
(-0.000117581 4.28584e-05 0.0100173)
(0.000113543 1.39056e-05 0.0100209)
(8.11424e-05 1.22502e-05 0.0100262)
(5.46178e-05 1.1201e-05 0.0100222)
(3.11844e-05 1.04544e-05 0.0100144)
(9.93959e-06 1.00464e-05 0.0100101)
(-1.04812e-05 1.00207e-05 0.0100107)
(-3.1727e-05 1.04876e-05 0.0100146)
(-5.50784e-05 1.13985e-05 0.0100213)
(-8.14828e-05 1.25622e-05 0.0100245)
(-0.000113734 1.42881e-05 0.0100195)
(0.000113473 -1.46072e-05 0.0100209)
(8.11447e-05 -1.28931e-05 0.0100259)
(5.47456e-05 -1.16908e-05 0.0100224)
(3.12718e-05 -1.07623e-05 0.0100148)
(9.92639e-06 -1.03317e-05 0.0100104)
(-1.04517e-05 -1.03218e-05 0.0100098)
(-3.16098e-05 -1.06559e-05 0.0100138)
(-5.49982e-05 -1.14518e-05 0.0100212)
(-8.14337e-05 -1.25678e-05 0.0100245)
(-0.000113698 -1.42852e-05 0.0100199)
(0.000117404 -4.30826e-05 0.0100184)
(8.36669e-05 -3.85459e-05 0.0100271)
(5.67673e-05 -3.53081e-05 0.0100265)
(3.25737e-05 -3.28636e-05 0.0100193)
(1.03886e-05 -3.15462e-05 0.0100144)
(-1.08068e-05 -3.14818e-05 0.0100135)
(-3.28886e-05 -3.27082e-05 0.0100182)
(-5.70234e-05 -3.51532e-05 0.0100251)
(-8.39554e-05 -3.83029e-05 0.0100254)
(-0.000117596 -4.28282e-05 0.0100174)
(0.000123312 -7.24081e-05 0.0100117)
(8.76634e-05 -6.54088e-05 0.0100241)
(6.03618e-05 -6.05252e-05 0.0100295)
(3.50558e-05 -5.70258e-05 0.0100257)
(1.1296e-05 -5.4988e-05 0.0100213)
(-1.15954e-05 -5.49446e-05 0.010021)
(-3.52835e-05 -5.69163e-05 0.0100249)
(-6.05458e-05 -6.04808e-05 0.0100283)
(-8.79157e-05 -6.52722e-05 0.0100225)
(-0.000123534 -7.22234e-05 0.0100101)
(0.000133486 -0.000104737 0.0100014)
(9.35953e-05 -9.38655e-05 0.0100126)
(6.52131e-05 -8.79966e-05 0.0100232)
(3.82423e-05 -8.40327e-05 0.0100258)
(1.24804e-05 -8.15307e-05 0.0100246)
(-1.27101e-05 -8.14754e-05 0.0100242)
(-3.85083e-05 -8.38794e-05 0.0100249)
(-6.54151e-05 -8.78392e-05 0.0100216)
(-9.37958e-05 -9.36314e-05 0.0100107)
(-0.000133711 -0.000104489 0.00999958)
(0.000141089 -0.000141275 0.0099953)
(0.000104584 -0.00013387 0.010001)
(7.23187e-05 -0.000123642 0.0100109)
(4.28702e-05 -0.000117614 0.0100173)
(1.42686e-05 -0.000113729 0.0100192)
(-1.43099e-05 -0.00011371 0.0100188)
(-4.2903e-05 -0.000117514 0.010016)
(-7.22604e-05 -0.000123513 0.0100088)
(-0.000104586 -0.000133668 0.00999928)
(-0.000141118 -0.000141164 0.00999328)
(0.000197536 0.000197372 0.0103314)
(0.000140027 0.000163937 0.0102843)
(9.4228e-05 0.000157979 0.0102455)
(5.51862e-05 0.000151009 0.0102245)
(1.83741e-05 0.000148345 0.0102164)
(-1.73159e-05 0.000148344 0.0102162)
(-5.41126e-05 0.000150995 0.0102243)
(-9.3296e-05 0.000157967 0.0102448)
(-0.000139315 0.000163789 0.0102829)
(-0.000197072 0.00019706 0.0103295)
(0.000164115 0.000139855 0.0102848)
(0.000122804 0.000122592 0.0102336)
(8.73102e-05 0.000115926 0.0101987)
(5.19994e-05 0.000112723 0.0101857)
(1.78046e-05 0.000112059 0.0101828)
(-1.66231e-05 0.000112065 0.0101828)
(-5.10265e-05 0.000112587 0.0101853)
(-8.66097e-05 0.000115738 0.0101977)
(-0.000122439 0.000122251 0.0102317)
(-0.000163905 0.000139341 0.0102824)
(0.000158083 9.40305e-05 0.010246)
(0.00011613 8.70626e-05 0.0101987)
(8.30083e-05 8.27797e-05 0.0101747)
(5.02915e-05 8.17033e-05 0.0101698)
(1.7305e-05 8.16161e-05 0.0101695)
(-1.63572e-05 8.14995e-05 0.0101696)
(-4.94434e-05 8.14385e-05 0.0101694)
(-8.23341e-05 8.24791e-05 0.010174)
(-0.000115766 8.6805e-05 0.0101975)
(-0.000157924 9.37431e-05 0.0102443)
(0.000151146 5.49662e-05 0.010224)
(0.00011296 5.17653e-05 0.0101848)
(8.19811e-05 5.01059e-05 0.0101693)
(5.03479e-05 5.01513e-05 0.010166)
(1.73418e-05 5.03326e-05 0.0101651)
(-1.65271e-05 5.02976e-05 0.0101648)
(-4.95665e-05 5.01237e-05 0.0101652)
(-8.1305e-05 5.0076e-05 0.010169)
(-0.000112592 5.17559e-05 0.0101852)
(-0.000151107 5.48516e-05 0.0102245)
(0.000148463 1.82508e-05 0.0102148)
(0.000112349 1.76737e-05 0.0101812)
(8.1911e-05 1.71741e-05 0.0101684)
(5.05196e-05 1.7165e-05 0.0101647)
(1.74087e-05 1.72313e-05 0.0101622)
(-1.65071e-05 1.73275e-05 0.0101615)
(-4.97061e-05 1.72649e-05 0.0101638)
(-8.12645e-05 1.70954e-05 0.0101688)
(-0.000112053 1.74654e-05 0.0101825)
(-0.000148508 1.80449e-05 0.0102163)
(0.000148566 -1.75534e-05 0.0102146)
(0.000112355 -1.68867e-05 0.0101809)
(8.17539e-05 -1.65323e-05 0.0101678)
(5.04707e-05 -1.66815e-05 0.0101641)
(1.74904e-05 -1.66671e-05 0.0101619)
(-1.64993e-05 -1.66624e-05 0.0101621)
(-4.988e-05 -1.67185e-05 0.0101649)
(-8.138e-05 -1.67005e-05 0.0101693)
(-0.000112092 -1.70856e-05 0.0101826)
(-0.000148491 -1.76851e-05 0.0102159)
(0.00015125 -5.44508e-05 0.0102226)
(0.000112925 -5.1339e-05 0.0101836)
(8.18293e-05 -4.96999e-05 0.0101683)
(5.03398e-05 -4.97354e-05 0.0101656)
(1.74084e-05 -4.99714e-05 0.0101646)
(-1.65527e-05 -5.0007e-05 0.0101653)
(-4.96771e-05 -4.98746e-05 0.0101667)
(-8.13403e-05 -4.97158e-05 0.0101699)
(-0.000112622 -5.14324e-05 0.0101857)
(-0.000151149 -5.44835e-05 0.0102238)
(0.000158251 -9.36191e-05 0.0102432)
(0.000116045 -8.67538e-05 0.0101962)
(8.28448e-05 -8.24485e-05 0.0101739)
(5.01911e-05 -8.13577e-05 0.0101699)
(1.72936e-05 -8.13941e-05 0.0101696)
(-1.6458e-05 -8.14005e-05 0.01017)
(-4.95741e-05 -8.14065e-05 0.0101701)
(-8.24052e-05 -8.24023e-05 0.0101749)
(-0.000115764 -8.68178e-05 0.0101979)
(-0.000158071 -9.36148e-05 0.0102443)
(0.000164217 -0.000139292 0.0102815)
(0.000122705 -0.000122176 0.0102307)
(8.71961e-05 -0.000115516 0.0101976)
(5.18688e-05 -0.000112356 0.0101855)
(1.76471e-05 -0.000111876 0.0101829)
(-1.68211e-05 -0.000111941 0.0101832)
(-5.11778e-05 -0.000112554 0.0101862)
(-8.67035e-05 -0.000115774 0.010199)
(-0.00012234 -0.000122495 0.0102328)
(-0.000163909 -0.000139587 0.0102836)
(0.000197449 -0.00019686 0.0103294)
(0.000139734 -0.000163511 0.0102819)
(9.3973e-05 -0.000157724 0.010244)
(5.48151e-05 -0.000150867 0.0102241)
(1.81323e-05 -0.00014828 0.0102164)
(-1.75351e-05 -0.000148338 0.0102171)
(-5.44105e-05 -0.000151099 0.0102257)
(-9.36917e-05 -0.00015795 0.0102464)
(-0.000139458 -0.00016391 0.0102845)
(-0.000197324 -0.000197167 0.0103318)
(0.000246473 0.000246393 0.0105841)
(0.000191036 0.000216449 0.0105523)
(0.000135012 0.000214634 0.0105201)
(7.97333e-05 0.000204065 0.0104917)
(2.57399e-05 0.000200549 0.0104756)
(-2.62164e-05 0.000200554 0.0104754)
(-8.02457e-05 0.000204227 0.0104921)
(-0.000135195 0.000214821 0.0105217)
(-0.000191251 0.000216657 0.0105548)
(-0.000246281 0.000246745 0.0105868)
(0.000216653 0.000191189 0.0105522)
(0.000178398 0.000178485 0.0105131)
(0.000127774 0.000168596 0.0104697)
(7.46044e-05 0.000157625 0.0104365)
(2.43939e-05 0.000153009 0.0104214)
(-2.48995e-05 0.000152898 0.0104219)
(-7.49581e-05 0.00015773 0.0104378)
(-0.000127908 0.000168642 0.0104716)
(-0.00017849 0.000178542 0.0105153)
(-0.000216638 0.000191422 0.0105538)
(0.00021471 0.000135368 0.0105198)
(0.000168508 0.000128114 0.0104695)
(0.000117555 0.00011791 0.0104238)
(6.74197e-05 0.000109043 0.0103974)
(2.20365e-05 0.000105108 0.0103878)
(-2.25461e-05 0.000105078 0.0103881)
(-6.77998e-05 0.000109158 0.0103978)
(-0.000117797 0.00011778 0.0104245)
(-0.000168518 0.000127794 0.0104703)
(-0.000214689 0.000135072 0.0105206)
(0.000204313 8.03047e-05 0.0104915)
(0.000157633 7.50387e-05 0.0104366)
(0.00010875 6.77906e-05 0.0103976)
(6.26921e-05 6.29453e-05 0.0103801)
(2.06551e-05 6.07705e-05 0.0103747)
(-2.10608e-05 6.09008e-05 0.0103746)
(-6.30921e-05 6.29256e-05 0.01038)
(-0.000109262 6.75923e-05 0.010398)
(-0.000157755 7.45345e-05 0.0104374)
(-0.000204072 7.97332e-05 0.0104915)
(0.000200593 2.61878e-05 0.0104762)
(0.000152809 2.47615e-05 0.0104224)
(0.000104646 2.24501e-05 0.0103888)
(6.04225e-05 2.09044e-05 0.0103751)
(2.00012e-05 2.01966e-05 0.0103712)
(-2.03782e-05 2.00663e-05 0.0103718)
(-6.10965e-05 2.06296e-05 0.0103761)
(-0.000105286 2.21864e-05 0.0103894)
(-0.000152992 2.45257e-05 0.0104228)
(-0.000200347 2.59884e-05 0.0104756)
(0.000200626 -2.60545e-05 0.0104769)
(0.000152905 -2.47873e-05 0.0104236)
(0.000104711 -2.24597e-05 0.0103896)
(6.04545e-05 -2.1087e-05 0.0103751)
(1.98145e-05 -2.03545e-05 0.0103716)
(-2.06244e-05 -2.06468e-05 0.0103725)
(-6.09889e-05 -2.13905e-05 0.010376)
(-0.000105124 -2.26895e-05 0.0103889)
(-0.000152899 -2.50499e-05 0.0104226)
(-0.000200207 -2.62615e-05 0.0104757)
(0.000204157 -8.00955e-05 0.0104934)
(0.000157466 -7.48765e-05 0.0104388)
(0.000108554 -6.7983e-05 0.0103986)
(6.25008e-05 -6.3258e-05 0.0103801)
(2.04447e-05 -6.11014e-05 0.0103755)
(-2.14101e-05 -6.11214e-05 0.0103752)
(-6.31042e-05 -6.32191e-05 0.0103799)
(-0.000109146 -6.80757e-05 0.0103979)
(-0.000157576 -7.50479e-05 0.0104378)
(-0.000203747 -8.02998e-05 0.0104924)
(0.000214658 -0.000135438 0.0105223)
(0.000168309 -0.000128134 0.0104717)
(0.000117181 -0.000118089 0.0104244)
(6.73318e-05 -0.00010928 0.010397)
(2.19512e-05 -0.000105336 0.0103879)
(-2.28056e-05 -0.000105303 0.0103881)
(-6.79421e-05 -0.000109307 0.0103975)
(-0.000117808 -0.000118111 0.0104245)
(-0.00016838 -0.00012809 0.0104712)
(-0.000214478 -0.000135456 0.010522)
(0.000216513 -0.000191629 0.0105549)
(0.000178177 -0.00017886 0.0105153)
(0.000127326 -0.000168648 0.0104704)
(7.43643e-05 -0.000157757 0.010437)
(2.41714e-05 -0.000153116 0.0104217)
(-2.52022e-05 -0.00015317 0.0104218)
(-7.51201e-05 -0.000157982 0.0104373)
(-0.000127995 -0.000168961 0.0104705)
(-0.000178414 -0.000178948 0.0105147)
(-0.000216458 -0.000191801 0.010554)
(0.000246319 -0.000246996 0.0105879)
(0.000191034 -0.000216967 0.010555)
(0.00013473 -0.000214885 0.010522)
(7.95173e-05 -0.000204359 0.0104924)
(2.54456e-05 -0.000200655 0.0104753)
(-2.66811e-05 -0.000200697 0.0104752)
(-8.04857e-05 -0.000204233 0.0104916)
(-0.000135444 -0.000214834 0.01052)
(-0.000191409 -0.000216818 0.0105528)
(-0.000246617 -0.000246935 0.0105851)
(0.000217757 0.000217712 0.0107669)
(0.000170737 0.000202646 0.0107529)
(0.000126279 0.000213226 0.0107511)
(7.80588e-05 0.000210543 0.0107425)
(2.57498e-05 0.000211279 0.0107323)
(-2.57488e-05 0.000211191 0.0107325)
(-7.82427e-05 0.000210501 0.0107417)
(-0.000126296 0.000213064 0.0107499)
(-0.000170865 0.000202699 0.0107512)
(-0.000217638 0.000218024 0.0107651)
(0.000202614 0.000170676 0.0107528)
(0.000169397 0.000169295 0.0107463)
(0.000128092 0.000173239 0.0107376)
(7.85092e-05 0.000169981 0.0107116)
(2.62198e-05 0.000168393 0.0106906)
(-2.65123e-05 0.000168255 0.0106902)
(-7.85781e-05 0.000170111 0.0107105)
(-0.000128058 0.000173402 0.0107366)
(-0.000169246 0.000169796 0.0107458)
(-0.000202429 0.0001714 0.0107528)
(0.000213092 0.000126051 0.0107514)
(0.000173219 0.000127902 0.0107378)
(0.000127795 0.000127609 0.0107077)
(7.57241e-05 0.000122312 0.0106642)
(2.5192e-05 0.000119071 0.010638)
(-2.52273e-05 0.000119147 0.0106373)
(-7.56525e-05 0.000122704 0.0106634)
(-0.000127597 0.000127978 0.0107066)
(-0.000173016 0.000128414 0.0107373)
(-0.000212867 0.000126503 0.0107513)
(0.000210445 7.7777e-05 0.0107429)
(0.000169936 7.82763e-05 0.0107121)
(0.000122437 7.53954e-05 0.0106643)
(7.14778e-05 7.12176e-05 0.0106174)
(2.37095e-05 6.86559e-05 0.0105943)
(-2.35744e-05 6.87384e-05 0.0105943)
(-7.1278e-05 7.12728e-05 0.010618)
(-0.000122336 7.55977e-05 0.0106635)
(-0.000169761 7.84202e-05 0.0107102)
(-0.000210223 7.80971e-05 0.0107413)
(0.000211097 2.53578e-05 0.010733)
(0.000168231 2.58772e-05 0.0106912)
(0.000119175 2.48757e-05 0.0106381)
(6.89739e-05 2.35842e-05 0.010594)
(2.27863e-05 2.26319e-05 0.0105734)
(-2.27261e-05 2.26236e-05 0.0105743)
(-6.87707e-05 2.35635e-05 0.0105944)
(-0.000118902 2.5246e-05 0.0106373)
(-0.000168009 2.6342e-05 0.0106896)
(-0.000210948 2.57694e-05 0.0107319)
(0.000210933 -2.58249e-05 0.0107321)
(0.000168213 -2.65358e-05 0.0106903)
(0.000119462 -2.52183e-05 0.010638)
(6.91119e-05 -2.3531e-05 0.0105944)
(2.27322e-05 -2.26812e-05 0.0105739)
(-2.26474e-05 -2.24852e-05 0.0105732)
(-6.8512e-05 -2.32921e-05 0.0105934)
(-0.000118874 -2.47753e-05 0.0106375)
(-0.000168074 -2.61611e-05 0.0106895)
(-0.000211038 -2.56107e-05 0.0107321)
(0.000210272 -7.80405e-05 0.0107417)
(0.000169992 -7.83322e-05 0.0107108)
(0.000122868 -7.53665e-05 0.0106636)
(7.16246e-05 -7.11218e-05 0.0106174)
(2.38104e-05 -6.84595e-05 0.0105943)
(-2.33472e-05 -6.838e-05 0.0105935)
(-7.11422e-05 -7.08903e-05 0.0106169)
(-0.000122468 -7.53356e-05 0.0106635)
(-0.000169955 -7.81489e-05 0.0107098)
(-0.000210304 -7.79038e-05 0.0107414)
(0.000212907 -0.000125926 0.0107505)
(0.000173463 -0.000127723 0.0107374)
(0.000128238 -0.000127388 0.0107062)
(7.6049e-05 -0.000122248 0.0106632)
(2.53829e-05 -0.000118754 0.010638)
(-2.49743e-05 -0.000118687 0.0106377)
(-7.54497e-05 -0.000122108 0.0106635)
(-0.000127721 -0.000127316 0.0107065)
(-0.000173276 -0.000127559 0.0107371)
(-0.000212986 -0.000125666 0.0107512)
(0.000202526 -0.000170585 0.0107517)
(0.000169673 -0.000169167 0.0107459)
(0.000128459 -0.000173203 0.0107369)
(7.88157e-05 -0.000169991 0.0107109)
(2.67086e-05 -0.000168187 0.0106905)
(-2.60406e-05 -0.00016796 0.0106904)
(-7.81944e-05 -0.000169714 0.0107105)
(-0.000127933 -0.000172821 0.0107366)
(-0.00016952 -0.000168987 0.0107457)
(-0.000202453 -0.000170171 0.0107528)
(0.000217769 -0.000217521 0.0107639)
(0.000171199 -0.000202477 0.0107517)
(0.00012662 -0.000212953 0.0107507)
(7.86262e-05 -0.000210336 0.0107421)
(2.62959e-05 -0.000211004 0.0107328)
(-2.53879e-05 -0.000210939 0.0107324)
(-7.77287e-05 -0.000210193 0.0107411)
(-0.000125923 -0.00021285 0.0107498)
(-0.000170864 -0.000202446 0.0107518)
(-0.000217527 -0.000217234 0.0107663)
(0.000157809 0.000157601 0.0109945)
(0.000114619 0.000147898 0.010952)
(8.18895e-05 0.000162538 0.0109401)
(5.25821e-05 0.000167863 0.0109412)
(1.72628e-05 0.000172901 0.0109411)
(-1.65493e-05 0.000172944 0.0109421)
(-5.18693e-05 0.000167597 0.0109419)
(-8.14007e-05 0.000162309 0.010941)
(-0.000114127 0.000147611 0.0109531)
(-0.000157828 0.000157371 0.0109952)
(0.000147956 0.000114342 0.0109517)
(0.000111948 0.000111768 0.0109276)
(8.5741e-05 0.000125838 0.0109301)
(5.69436e-05 0.000135804 0.010929)
(1.95681e-05 0.00014158 0.010922)
(-1.90176e-05 0.000141641 0.0109217)
(-5.64795e-05 0.000135602 0.0109285)
(-8.5502e-05 0.000125705 0.0109302)
(-0.000111639 0.000111457 0.0109283)
(-0.000147784 0.000113895 0.0109533)
(0.000162619 8.18436e-05 0.0109396)
(0.000126014 8.5743e-05 0.0109295)
(9.94732e-05 9.93195e-05 0.0109266)
(6.41946e-05 0.000106884 0.0109057)
(2.21603e-05 0.000110215 0.0108877)
(-2.15534e-05 0.000110242 0.0108872)
(-6.37164e-05 0.000106667 0.0109059)
(-9.91632e-05 9.91904e-05 0.0109269)
(-0.000125926 8.56118e-05 0.0109312)
(-0.000162559 8.15033e-05 0.0109418)
(0.000167709 5.25896e-05 0.0109412)
(0.000135743 5.70921e-05 0.010929)
(0.00010684 6.4232e-05 0.0109054)
(6.74e-05 6.75926e-05 0.0108684)
(2.29453e-05 6.88312e-05 0.0108442)
(-2.25867e-05 6.85886e-05 0.0108443)
(-6.71272e-05 6.72827e-05 0.0108695)
(-0.000106541 6.38198e-05 0.010906)
(-0.000135698 5.67414e-05 0.0109293)
(-0.000167836 5.22128e-05 0.0109422)
(0.000173079 1.72315e-05 0.0109414)
(0.000141744 1.95655e-05 0.0109218)
(0.000110412 2.19799e-05 0.0108866)
(6.87927e-05 2.29887e-05 0.0108438)
(2.31912e-05 2.3198e-05 0.0108183)
(-2.31464e-05 2.32665e-05 0.0108182)
(-6.84712e-05 2.28112e-05 0.0108437)
(-0.000110108 2.1657e-05 0.0108867)
(-0.000141616 1.91029e-05 0.0109218)
(-0.00017308 1.66731e-05 0.0109421)
(0.000173001 -1.64182e-05 0.0109411)
(0.00014149 -1.89407e-05 0.0109202)
(0.000110271 -2.1582e-05 0.010886)
(6.85578e-05 -2.26176e-05 0.0108445)
(2.32153e-05 -2.32879e-05 0.0108182)
(-2.29719e-05 -2.30759e-05 0.0108176)
(-6.8641e-05 -2.28149e-05 0.0108436)
(-0.000110184 -2.18695e-05 0.0108874)
(-0.000141553 -1.92698e-05 0.0109218)
(-0.000173135 -1.68321e-05 0.0109424)
(0.000167907 -5.21478e-05 0.010941)
(0.000135685 -5.66853e-05 0.0109276)
(0.000106809 -6.36871e-05 0.0109052)
(6.71399e-05 -6.72623e-05 0.0108695)
(2.27126e-05 -6.87139e-05 0.0108439)
(-2.26594e-05 -6.88078e-05 0.010844)
(-6.73308e-05 -6.76019e-05 0.0108695)
(-0.000106629 -6.40039e-05 0.0109063)
(-0.00013563 -5.70066e-05 0.0109282)
(-0.000167908 -5.2447e-05 0.0109411)
(0.000162635 -8.14165e-05 0.01094)
(0.000125839 -8.55332e-05 0.0109295)
(9.92548e-05 -9.92075e-05 0.0109268)
(6.34973e-05 -0.000106822 0.0109064)
(2.16117e-05 -0.000110296 0.0108877)
(-2.18122e-05 -0.000110256 0.0108872)
(-6.38122e-05 -0.000106897 0.0109064)
(-9.91831e-05 -9.9192e-05 0.0109271)
(-0.000125958 -8.58841e-05 0.0109305)
(-0.000162528 -8.17381e-05 0.0109399)
(0.000147826 -0.000114165 0.0109533)
(0.000111479 -0.000111705 0.0109285)
(8.54374e-05 -0.000126001 0.0109306)
(5.63472e-05 -0.00013575 0.0109288)
(1.91967e-05 -0.000141656 0.0109219)
(-1.92202e-05 -0.000141506 0.0109222)
(-5.65952e-05 -0.000135701 0.0109294)
(-8.54836e-05 -0.000125666 0.0109318)
(-0.000111745 -0.00011175 0.0109295)
(-0.000147859 -0.000114101 0.0109529)
(0.000157667 -0.000157675 0.0109957)
(0.000113945 -0.000147797 0.010953)
(8.14122e-05 -0.000162334 0.0109405)
(5.1734e-05 -0.000167532 0.0109414)
(1.67302e-05 -0.000172868 0.0109422)
(-1.67912e-05 -0.000172784 0.0109429)
(-5.19607e-05 -0.000167807 0.0109422)
(-8.14041e-05 -0.000162479 0.0109423)
(-0.00011422 -0.000148063 0.0109536)
(-0.000157717 -0.000157526 0.010995)
(0.000145646 0.000146025 0.0112784)
(0.000102008 0.000132153 0.0111879)
(6.48308e-05 0.000137241 0.0111192)
(3.9034e-05 0.000140188 0.011091)
(1.1299e-05 0.000144247 0.0110845)
(-1.24085e-05 0.000144518 0.011085)
(-3.9898e-05 0.000140181 0.0110914)
(-6.58112e-05 0.00013753 0.0111192)
(-0.000102328 0.000132073 0.0111875)
(-0.000146009 0.000145957 0.0112776)
(0.000131891 0.000102157 0.0111874)
(8.93589e-05 8.94837e-05 0.0110983)
(6.01447e-05 9.51208e-05 0.0110477)
(3.97098e-05 0.000104584 0.0110448)
(1.26891e-05 0.000111741 0.0110505)
(-1.35417e-05 0.000112046 0.0110503)
(-4.06404e-05 0.000104447 0.0110443)
(-6.08856e-05 9.53151e-05 0.0110469)
(-8.96349e-05 8.93102e-05 0.0110972)
(-0.000132088 0.00010196 0.0111873)
(0.000137298 6.50085e-05 0.0111183)
(9.50819e-05 6.02439e-05 0.011047)
(7.20913e-05 7.22117e-05 0.011027)
(4.82897e-05 8.37877e-05 0.0110386)
(1.63915e-05 9.0953e-05 0.011045)
(-1.71975e-05 9.10486e-05 0.0110455)
(-4.90829e-05 8.35163e-05 0.0110386)
(-7.27539e-05 7.23538e-05 0.0110276)
(-9.55929e-05 6.03494e-05 0.0110471)
(-0.000137537 6.5265e-05 0.0111182)
(0.000140037 3.90456e-05 0.0110912)
(0.000104434 3.97209e-05 0.011045)
(8.3661e-05 4.85912e-05 0.011039)
(5.58503e-05 5.61331e-05 0.0110433)
(1.9002e-05 6.07021e-05 0.0110413)
(-1.9904e-05 6.05463e-05 0.0110415)
(-5.67276e-05 5.63696e-05 0.0110437)
(-8.40075e-05 4.87416e-05 0.0110392)
(-0.000104782 4.02815e-05 0.011045)
(-0.000140287 3.96091e-05 0.0110909)
(0.000144474 1.13954e-05 0.011085)
(0.000111956 1.27806e-05 0.0110512)
(9.10666e-05 1.64297e-05 0.0110457)
(6.04064e-05 1.89572e-05 0.011042)
(2.06604e-05 2.07143e-05 0.0110356)
(-2.13532e-05 2.08541e-05 0.0110348)
(-6.08966e-05 1.94683e-05 0.0110416)
(-9.14632e-05 1.66621e-05 0.0110453)
(-0.000112219 1.3064e-05 0.0110502)
(-0.000144534 1.1671e-05 0.011084)
(0.000144516 -1.21854e-05 0.011086)
(0.000111876 -1.34027e-05 0.0110511)
(9.0814e-05 -1.71774e-05 0.0110453)
(6.02717e-05 -1.98421e-05 0.011042)
(2.08756e-05 -2.12828e-05 0.0110347)
(-2.11613e-05 -2.11884e-05 0.0110352)
(-6.11075e-05 -1.97282e-05 0.011042)
(-9.14607e-05 -1.70594e-05 0.011045)
(-0.000112178 -1.30837e-05 0.0110504)
(-0.00014463 -1.17292e-05 0.0110852)
(0.00014026 -3.99998e-05 0.0110924)
(0.000104524 -4.06589e-05 0.0110455)
(8.3586e-05 -4.92025e-05 0.0110395)
(5.61625e-05 -5.66416e-05 0.0110442)
(1.93204e-05 -6.1093e-05 0.011041)
(-1.97964e-05 -6.09627e-05 0.0110413)
(-5.66746e-05 -5.68336e-05 0.0110432)
(-8.38036e-05 -4.88828e-05 0.011038)
(-0.000104592 -4.06046e-05 0.011045)
(-0.000140394 -3.96377e-05 0.0110917)
(0.000137406 -6.58898e-05 0.0111195)
(9.50908e-05 -6.10863e-05 0.0110478)
(7.22444e-05 -7.29001e-05 0.0110285)
(4.8388e-05 -8.40816e-05 0.011039)
(1.67516e-05 -9.15228e-05 0.0110444)
(-1.70213e-05 -9.13346e-05 0.011044)
(-4.907e-05 -8.41423e-05 0.0110376)
(-7.2579e-05 -7.26126e-05 0.0110268)
(-9.53886e-05 -6.11712e-05 0.0110467)
(-0.000137444 -6.57085e-05 0.0111178)
(0.000131905 -0.000102604 0.0111886)
(8.94083e-05 -8.99063e-05 0.0110984)
(6.06271e-05 -9.556e-05 0.0110471)
(4.01092e-05 -0.000104687 0.0110435)
(1.3127e-05 -0.000112219 0.011049)
(-1.3401e-05 -0.000112287 0.0110495)
(-4.06233e-05 -0.000104902 0.0110437)
(-6.08198e-05 -9.53952e-05 0.0110472)
(-8.94053e-05 -8.97833e-05 0.0110979)
(-0.000132014 -0.000102383 0.0111875)
(0.000146061 -0.000146344 0.0112777)
(0.000102358 -0.000132487 0.0111871)
(6.5742e-05 -0.000137759 0.0111186)
(3.92654e-05 -0.000140468 0.0110904)
(1.1688e-05 -0.000144814 0.0110826)
(-1.1993e-05 -0.000144581 0.0110832)
(-3.97805e-05 -0.000140595 0.0110898)
(-6.57943e-05 -0.000137445 0.0111187)
(-0.0001024 -0.000132266 0.0111874)
(-0.000146164 -0.000146051 0.0112778)
(0.000182936 0.000183305 0.0115628)
(0.000143999 0.000171116 0.011464)
(9.57104e-05 0.000166199 0.0113608)
(5.47574e-05 0.000160856 0.0112981)
(1.66485e-05 0.000160336 0.011275)
(-1.62658e-05 0.000160423 0.0112746)
(-5.40559e-05 0.000161078 0.011298)
(-9.52396e-05 0.000166402 0.01136)
(-0.000143484 0.000171241 0.0114633)
(-0.000182744 0.000183047 0.0115624)
(0.00017097 0.000144339 0.0114647)
(0.000130469 0.000130558 0.0113356)
(8.40873e-05 0.000120545 0.0112292)
(4.87261e-05 0.000114791 0.0111944)
(1.53535e-05 0.000114655 0.0111931)
(-1.4354e-05 0.000114752 0.0111934)
(-4.79151e-05 0.000114787 0.0111943)
(-8.33206e-05 0.000120461 0.0112276)
(-0.000129917 0.000130372 0.0113342)
(-0.000170859 0.000143891 0.0114638)
(0.000166112 9.57313e-05 0.0113616)
(0.000120459 8.39256e-05 0.0112291)
(8.01224e-05 8.01694e-05 0.0111603)
(4.74427e-05 8.00098e-05 0.011168)
(1.58333e-05 8.25929e-05 0.0111836)
(-1.5402e-05 8.24359e-05 0.0111843)
(-4.68696e-05 7.94765e-05 0.0111669)
(-7.95158e-05 7.98039e-05 0.0111602)
(-0.000119888 8.34791e-05 0.0112275)
(-0.00016607 9.5466e-05 0.01136)
(0.000160831 5.45664e-05 0.0112987)
(0.000114936 4.83185e-05 0.0111943)
(8.0182e-05 4.74231e-05 0.0111682)
(4.98035e-05 4.94938e-05 0.0111927)
(1.7053e-05 5.20526e-05 0.0112091)
(-1.66589e-05 5.196e-05 0.011209)
(-4.91642e-05 4.96383e-05 0.0111908)
(-7.93754e-05 4.7499e-05 0.0111674)
(-0.000114387 4.84518e-05 0.011194)
(-0.000160769 5.45044e-05 0.0112983)
(0.000160137 1.67258e-05 0.0112743)
(0.000114726 1.52684e-05 0.0111927)
(8.264e-05 1.59652e-05 0.0111845)
(5.20877e-05 1.68563e-05 0.0112095)
(1.81412e-05 1.80766e-05 0.0112247)
(-1.7594e-05 1.79461e-05 0.0112236)
(-5.14068e-05 1.71453e-05 0.0112091)
(-8.22096e-05 1.58911e-05 0.0111842)
(-0.000114385 1.50111e-05 0.0111925)
(-0.000160191 1.64179e-05 0.011274)
(0.000160293 -1.62762e-05 0.0112746)
(0.0001149 -1.45055e-05 0.0111928)
(8.24888e-05 -1.53732e-05 0.0111837)
(5.2097e-05 -1.65744e-05 0.0112082)
(1.81352e-05 -1.73955e-05 0.0112235)
(-1.76286e-05 -1.75369e-05 0.0112244)
(-5.15394e-05 -1.65834e-05 0.0112099)
(-8.23376e-05 -1.5527e-05 0.0111835)
(-0.00011468 -1.47974e-05 0.0111935)
(-0.000160383 -1.64354e-05 0.0112745)
(0.000160757 -5.37896e-05 0.0112982)
(0.000114838 -4.77301e-05 0.0111942)
(7.97444e-05 -4.68947e-05 0.0111674)
(4.98874e-05 -4.88953e-05 0.0111915)
(1.72095e-05 -5.1395e-05 0.0112093)
(-1.67697e-05 -5.11543e-05 0.0112093)
(-4.9224e-05 -4.90785e-05 0.0111912)
(-7.95711e-05 -4.68851e-05 0.0111669)
(-0.000114673 -4.82437e-05 0.0111958)
(-0.000160969 -5.41668e-05 0.0112992)
(0.000166128 -9.517e-05 0.0113601)
(0.000120332 -8.32871e-05 0.0112276)
(7.99982e-05 -7.93458e-05 0.0111601)
(4.76526e-05 -7.90911e-05 0.0111673)
(1.6137e-05 -8.19765e-05 0.0111839)
(-1.55436e-05 -8.19416e-05 0.0111848)
(-4.72941e-05 -7.93984e-05 0.0111672)
(-7.99734e-05 -7.96454e-05 0.0111599)
(-0.000120281 -8.37226e-05 0.0112274)
(-0.000166396 -9.54597e-05 0.01136)
(0.000170998 -0.000143162 0.0114634)
(0.000130525 -0.000129386 0.0113339)
(8.40301e-05 -0.000119494 0.011228)
(4.86746e-05 -0.000114052 0.0111944)
(1.52202e-05 -0.000114204 0.0111936)
(-1.49451e-05 -0.000114429 0.0111944)
(-4.84649e-05 -0.000114513 0.0111949)
(-8.39334e-05 -0.000120016 0.0112277)
(-0.000130099 -0.000130091 0.0113337)
(-0.00017099 -0.000143875 0.0114638)
(0.000182819 -0.000182318 0.0115614)
(0.000143859 -0.0001705 0.0114627)
(9.55776e-05 -0.000166144 0.0113617)
(5.45545e-05 -0.000160869 0.0112996)
(1.66537e-05 -0.000160353 0.0112743)
(-1.64346e-05 -0.000160069 0.0112746)
(-5.44746e-05 -0.000160853 0.0112986)
(-9.59393e-05 -0.000165908 0.0113607)
(-0.000144187 -0.000170886 0.0114632)
(-0.000183242 -0.000182962 0.0115624)
(0.000208838 0.000208791 0.0117335)
(0.00018315 0.000210109 0.0116861)
(0.000131521 0.000203781 0.0116198)
(7.5424e-05 0.000193161 0.0115603)
(2.38666e-05 0.000188936 0.0115287)
(-2.40796e-05 0.000188651 0.0115275)
(-7.52006e-05 0.000193611 0.0115596)
(-0.000131498 0.000203733 0.0116199)
(-0.000183322 0.00021055 0.0116874)
(-0.000209132 0.000208594 0.0117349)
(0.000210467 0.000183356 0.011687)
(0.000182411 0.000182227 0.011596)
(0.000122592 0.000164804 0.0115032)
(6.68212e-05 0.000143442 0.01144)
(2.06642e-05 0.000133729 0.0114155)
(-2.02073e-05 0.000133515 0.0114162)
(-6.63931e-05 0.000143773 0.011442)
(-0.000122376 0.000164511 0.0115044)
(-0.000182548 0.000182503 0.0115981)
(-0.000210642 0.000183036 0.0116878)
(0.000203687 0.000131531 0.0116211)
(0.000164802 0.000122429 0.0115035)
(0.000105403 0.000105502 0.0114111)
(5.50216e-05 8.87117e-05 0.0113726)
(1.73392e-05 8.24472e-05 0.011365)
(-1.74957e-05 8.22096e-05 0.0113654)
(-5.50032e-05 8.86364e-05 0.0113719)
(-0.000105397 0.000105195 0.0114113)
(-0.00016449 0.000122155 0.0115041)
(-0.000204099 0.000131271 0.0116208)
(0.000193526 7.54227e-05 0.01156)
(0.00014393 6.65535e-05 0.0114396)
(8.89411e-05 5.48724e-05 0.0113724)
(4.72575e-05 4.67572e-05 0.0113624)
(1.52899e-05 4.36746e-05 0.0113681)
(-1.51571e-05 4.38231e-05 0.0113676)
(-4.68225e-05 4.67944e-05 0.0113599)
(-8.88952e-05 5.50896e-05 0.0113722)
(-0.000143722 6.64175e-05 0.011441)
(-0.000193639 7.52112e-05 0.0115608)
(0.000188558 2.41926e-05 0.0115277)
(0.000133661 2.09197e-05 0.0114148)
(8.22173e-05 1.77252e-05 0.0113657)
(4.38687e-05 1.53488e-05 0.0113679)
(1.44867e-05 1.45117e-05 0.0113793)
(-1.44035e-05 1.42658e-05 0.0113782)
(-4.37501e-05 1.50727e-05 0.011368)
(-8.24302e-05 1.74145e-05 0.0113663)
(-0.000133569 2.02567e-05 0.0114162)
(-0.000188866 2.4009e-05 0.0115283)
(0.000188808 -2.42928e-05 0.0115272)
(0.000134029 -2.0482e-05 0.0114158)
(8.22756e-05 -1.75293e-05 0.0113657)
(4.39898e-05 -1.5413e-05 0.0113667)
(1.42175e-05 -1.46411e-05 0.0113783)
(-1.46132e-05 -1.47735e-05 0.011378)
(-4.36563e-05 -1.54775e-05 0.0113685)
(-8.25758e-05 -1.76448e-05 0.0113657)
(-0.000133788 -2.08775e-05 0.0114165)
(-0.000188779 -2.4338e-05 0.0115274)
(0.000193241 -7.49879e-05 0.0115599)
(0.000143787 -6.64625e-05 0.011441)
(8.83721e-05 -5.52015e-05 0.011372)
(4.67967e-05 -4.70974e-05 0.0113605)
(1.51255e-05 -4.40855e-05 0.0113684)
(-1.52502e-05 -4.39924e-05 0.0113678)
(-4.66265e-05 -4.70334e-05 0.0113609)
(-8.8863e-05 -5.51587e-05 0.0113722)
(-0.000143618 -6.64328e-05 0.0114421)
(-0.000193123 -7.51996e-05 0.0115607)
(0.000203747 -0.000131768 0.0116205)
(0.000164631 -0.000122673 0.0115033)
(0.000105044 -0.000105536 0.0114103)
(5.51217e-05 -8.90421e-05 0.0113717)
(1.7269e-05 -8.26678e-05 0.0113656)
(-1.75733e-05 -8.29e-05 0.0113669)
(-5.47981e-05 -8.9136e-05 0.0113722)
(-0.000105386 -0.000105724 0.0114109)
(-0.000164477 -0.000122206 0.0115033)
(-0.000203966 -0.000131398 0.0116211)
(0.0002105 -0.000183381 0.0116865)
(0.000182466 -0.000182331 0.0115963)
(0.000121919 -0.000164686 0.0115045)
(6.62443e-05 -0.000143881 0.0114414)
(2.01196e-05 -0.000133874 0.0114169)
(-2.06398e-05 -0.000134001 0.0114169)
(-6.60496e-05 -0.000143952 0.0114412)
(-0.000122004 -0.00016507 0.011503)
(-0.000181916 -0.000182485 0.0115962)
(-0.000210118 -0.000183366 0.0116873)
(0.000208315 -0.000209014 0.0117352)
(0.000182572 -0.000210385 0.0116879)
(0.000130473 -0.00020422 0.0116222)