/*--------------------------------*- C++ -*----------------------------------*\
| =========                 |                                                 |
| \\      /  F ield         | OpenFOAM: The Open Source CFD Toolbox           |
|  \\    /   O peration     | Version:  2406                                  |
|   \\  /    A nd           | Website:  www.openfoam.com                      |
|    \\/     M anipulation  |                                                 |
\*---------------------------------------------------------------------------*/
FoamFile
{
    version     2.0;
    format      ascii;
    arch        "LSB;label=32;scalar=64";
    class       surfaceScalarField;
    location    "1.5";
    object      phi;
}
// * * * * * * * * * * * * * * * * * * * * * * * * * * * * * * * * * * * * * //

dimensions      [0 3 -1 0 0 0 0];

oriented        oriented;

internalField   nonuniform List<scalar> 
43700
(
1.80831e-08
1.80829e-08
4.79347e-07
-2.27492e-08
-2.27448e-08
1.34575e-08
1.66054e-08
5.18542e-07
-2.11383e-08
8.92492e-09
1.53838e-08
5.48341e-07
-1.97643e-08
4.46686e-09
1.46915e-08
5.68434e-07
-1.89581e-08
4.3451e-12
1.42777e-08
5.78528e-07
-1.84153e-08
-4.4578e-09
1.42781e-08
5.78529e-07
-1.84168e-08
-8.91482e-09
1.46894e-08
5.68434e-07
-1.89561e-08
-1.34484e-08
1.53822e-08
5.48343e-07
-1.97622e-08
-1.80781e-08
1.6602e-08
5.18545e-07
-2.11356e-08
1.80816e-08
4.79351e-07
-2.27421e-08
-2.27481e-08
1.66045e-08
1.34568e-08
5.18543e-07
-2.11359e-08
1.22512e-08
1.22534e-08
5.54549e-07
8.02597e-09
1.1307e-08
5.81992e-07
3.98857e-09
1.07237e-08
6.00503e-07
6.14575e-12
1.04091e-08
6.09824e-07
-3.97708e-09
1.04087e-08
6.09826e-07
-8.01376e-09
1.07217e-08
6.00503e-07
-1.22418e-08
1.13034e-08
5.81996e-07
-1.65972e-08
1.22479e-08
5.54553e-07
1.34533e-08
5.18545e-07
-2.11329e-08
1.53819e-08
8.92599e-09
5.4834e-07
-1.97611e-08
1.13047e-08
8.0283e-09
5.81993e-07
7.39832e-09
7.40052e-09
6.07686e-07
3.66807e-09
6.99491e-09
6.2502e-07
6.81761e-12
6.79007e-09
6.33757e-07
-3.65615e-09
6.7898e-09
6.33757e-07
-7.38668e-09
6.99136e-09
6.25021e-07
-1.12951e-08
7.39614e-09
6.07688e-07
-1.53756e-08
8.02199e-09
5.81998e-07
8.92087e-09
5.48347e-07
-1.97591e-08
1.46887e-08
4.4676e-09
5.68434e-07
-1.89548e-08
1.07211e-08
3.98991e-09
6.00504e-07
6.99177e-09
3.67095e-09
6.25021e-07
3.45336e-09
3.45669e-09
6.41579e-07
5.73638e-12
3.35287e-09
6.49928e-07
-3.44481e-09
3.35225e-09
6.49929e-07
-6.9818e-09
3.45399e-09
6.41578e-07
-1.07131e-08
3.66472e-09
6.25023e-07
-1.46847e-08
3.98349e-09
6.00505e-07
4.46198e-09
5.68437e-07
-1.89527e-08
1.42758e-08
6.28233e-12
5.78527e-07
-1.84139e-08
1.04067e-08
6.24663e-12
6.09827e-07
6.78813e-09
7.54416e-12
6.33759e-07
3.35051e-09
5.96215e-12
6.49929e-07
5.78036e-12
5.45487e-12
6.58085e-07
-3.34242e-09
2.84668e-12
6.58086e-07
-6.78102e-09
4.03061e-12
6.49929e-07
-1.03997e-08
2.7332e-12
6.33761e-07
-1.42723e-08
2.21332e-12
6.09827e-07
2.08326e-12
5.78531e-07
-1.84128e-08
1.4275e-08
-4.45744e-09
5.78529e-07
-1.8415e-08
1.04059e-08
-3.97677e-09
6.09827e-07
6.78649e-09
-3.65609e-09
6.3376e-07
3.34886e-09
-3.44512e-09
6.49929e-07
3.29384e-12
-3.34205e-09
6.58085e-07
-3.34393e-09
-3.34395e-09
6.58084e-07
-6.78122e-09
-3.44561e-09
6.4993e-07
-1.0401e-08
-3.66027e-09
6.33759e-07
-1.42721e-08
-3.98037e-09
6.09827e-07
-4.46132e-09
5.78529e-07
-1.8413e-08
1.46888e-08
-8.91617e-09
5.68437e-07
-1.89552e-08
1.07183e-08
-8.01582e-09
6.00505e-07
6.98652e-09
-7.38858e-09
6.25023e-07
3.45129e-09
-6.98283e-09
6.41579e-07
3.34169e-12
-6.78039e-09
6.49929e-07
-3.44649e-09
-6.78192e-09
6.4993e-07
-6.98458e-09
-6.98373e-09
6.41579e-07
-1.07153e-08
-7.38972e-09
6.25022e-07
-1.46868e-08
-8.01677e-09
6.00504e-07
-8.91499e-09
5.68436e-07
-1.89548e-08
1.53795e-08
-1.34505e-08
5.48346e-07
-1.97613e-08
1.12997e-08
-1.22431e-08
5.81998e-07
7.39292e-09
-1.12968e-08
6.07689e-07
3.6636e-09
-1.07136e-08
6.25022e-07
2.36578e-12
-1.03998e-08
6.3376e-07
-3.65887e-09
-1.04001e-08
6.33757e-07
-7.38982e-09
-1.07156e-08
6.25024e-07
-1.12979e-08
-1.12959e-08
6.07689e-07
-1.53759e-08
-1.22434e-08
5.81998e-07
-1.34482e-08
5.48345e-07
-1.97609e-08
1.66004e-08
-1.80792e-08
5.18544e-07
-2.1135e-08
1.22457e-08
-1.65998e-08
5.54555e-07
8.02053e-09
-1.5379e-08
5.81996e-07
3.98332e-09
-1.46874e-08
6.00505e-07
2.67242e-12
-1.42743e-08
6.09825e-07
-3.9811e-09
-1.42741e-08
6.09825e-07
-8.01426e-09
-1.46861e-08
6.00505e-07
-1.22443e-08
-1.53761e-08
5.81995e-07
-1.65959e-08
-1.65995e-08
5.54552e-07
-1.80765e-08
5.18546e-07
-2.11334e-08
1.8079e-08
4.79352e-07
-2.27463e-08
-2.27463e-08
1.34509e-08
5.18545e-07
-2.1135e-08
8.92149e-09
5.48345e-07
-1.97605e-08
4.46361e-09
5.68435e-07
-1.89545e-08
3.46431e-12
5.7853e-07
-1.84138e-08
-4.46011e-09
5.78529e-07
-1.84127e-08
-8.9115e-09
5.68435e-07
-1.89561e-08
-1.34518e-08
5.48348e-07
-1.97578e-08
-1.80739e-08
5.18544e-07
-2.11349e-08
4.79354e-07
-2.27467e-08
-2.27429e-08
2.96482e-08
2.96457e-08
4.90451e-07
-3.51999e-08
-3.52005e-08
2.16139e-08
2.49104e-08
5.29842e-07
-2.8176e-08
1.44264e-08
2.30522e-08
5.59781e-07
-2.73028e-08
7.18448e-09
2.1555e-08
5.79956e-07
-2.58375e-08
-1.16082e-11
2.08731e-08
5.90078e-07
-2.52268e-08
-7.20454e-09
2.08746e-08
5.90076e-07
-2.5227e-08
-1.44456e-08
2.15577e-08
5.79955e-07
-2.58398e-08
-2.16294e-08
2.30559e-08
5.59777e-07
-2.73041e-08
-2.96575e-08
2.49145e-08
5.29838e-07
-2.81791e-08
2.96491e-08
4.90448e-07
-3.52076e-08
-3.51981e-08
2.49141e-08
2.16114e-08
5.29842e-07
-2.81786e-08
1.92008e-08
1.91954e-08
5.65973e-07
1.31203e-08
1.77058e-08
5.93418e-07
6.62072e-09
1.66355e-08
6.11921e-07
-1.1483e-11
1.61057e-08
6.21223e-07
-6.64387e-09
1.61068e-08
6.21224e-07
-1.31419e-08
1.6641e-08
6.11919e-07
-1.92188e-08
1.77135e-08
5.93414e-07
-2.49243e-08
1.92048e-08
5.65968e-07
2.16191e-08
5.29834e-07
-2.81821e-08
2.30571e-08
1.4424e-08
5.59778e-07
-2.7306e-08
1.77117e-08
1.31173e-08
5.93417e-07
1.20353e-08
1.20309e-08
6.1904e-07
6.07266e-09
1.13062e-08
6.36311e-07
-1.10934e-11
1.09386e-08
6.4501e-07
-6.09369e-09
1.09397e-08
6.45009e-07
-1.20552e-08
1.13121e-08
6.36312e-07
-1.77288e-08
1.20394e-08
6.19037e-07
-2.30674e-08
1.31293e-08
5.93413e-07
1.44351e-08
5.59772e-07
-2.73098e-08
2.1561e-08
7.18482e-09
5.79955e-07
-2.58422e-08
1.66407e-08
6.61926e-09
6.11919e-07
1.13108e-08
6.06916e-09
6.36312e-07
5.71603e-09
5.71261e-09
6.52767e-07
-9.05114e-12
5.52709e-09
6.61063e-07
-5.73248e-09
5.52895e-09
6.61063e-07
-1.1328e-08
5.71746e-09
6.52768e-07
-1.66547e-08
6.07859e-09
6.36311e-07
-2.15693e-08
6.63092e-09
6.11917e-07
7.19531e-09
5.79952e-07
-2.58443e-08
2.0878e-08
-1.05425e-11
5.90076e-07
-2.52306e-08
1.61104e-08
-1.14755e-11
6.21222e-07
1.09422e-08
-1.27831e-11
6.45008e-07
5.53008e-09
-1.0657e-11
6.61063e-07
-7.48014e-12
-7.89525e-12
6.69158e-07
-5.54444e-09
-4.07724e-12
6.6916e-07
-1.09563e-08
-4.62987e-12
6.61063e-07
-1.61216e-08
-2.6209e-12
6.45008e-07
-2.0885e-08
-1.50161e-12
6.21221e-07
7.16283e-13
5.90073e-07
-2.52328e-08
2.08776e-08
-7.20623e-09
5.90076e-07
-2.52304e-08
1.61118e-08
-6.64252e-09
6.21223e-07
1.09448e-08
-6.0933e-09
6.45009e-07
5.53309e-09
-5.73235e-09
6.61063e-07
-4.98498e-12
-5.54485e-09
6.6916e-07
-5.54375e-09
-5.54238e-09
6.69159e-07
-1.09536e-08
-5.72887e-09
6.61064e-07
-1.61203e-08
-6.08585e-09
6.45007e-07
-2.08837e-08
-6.63548e-09
6.21223e-07
-7.19722e-09
5.90076e-07
-2.52329e-08
2.15612e-08
-1.44419e-08
5.79952e-07
-2.58394e-08
1.66446e-08
-1.31389e-08
6.11917e-07
1.13175e-08
-1.20513e-08
6.36309e-07
5.7228e-09
-1.13248e-08
6.52767e-07
-4.64392e-12
-1.09548e-08
6.61065e-07
-5.72817e-09
-1.09521e-08
6.61063e-07
-1.13236e-08
-1.1324e-08
6.52768e-07
-1.66523e-08
-1.20489e-08
6.3631e-07
-2.15657e-08
-1.31373e-08
6.11919e-07
-1.44406e-08
5.79954e-07
-2.58434e-08
2.3059e-08
-2.1624e-08
5.59775e-07
-2.73048e-08
1.77175e-08
-1.92139e-08
5.93413e-07
1.20433e-08
-1.77242e-08
6.19035e-07
6.08079e-09
-1.66512e-08
6.36311e-07
-2.88454e-12
-1.61189e-08
6.45008e-07
-6.0872e-09
-1.61184e-08
6.45008e-07
-1.20491e-08
-1.66503e-08
6.3631e-07
-1.7725e-08
-1.77226e-08
6.19036e-07
-2.30648e-08
-1.92138e-08
5.93415e-07
-2.16245e-08
5.59776e-07
-2.73102e-08
2.49169e-08
-2.96551e-08
5.29836e-07
-2.81788e-08
1.92087e-08
-2.49202e-08
5.65966e-07
1.31321e-08
-2.30623e-08
5.93412e-07
6.63188e-09
-2.15649e-08
6.11919e-07
-1.97482e-12
-2.08821e-08
6.21224e-07
-6.63751e-09
-2.08822e-08
6.21223e-07
-1.31374e-08
-2.15664e-08
6.1192e-07
-1.92159e-08
-2.30639e-08
5.93414e-07
-2.49223e-08
-2.49228e-08
5.65968e-07
-2.96553e-08
5.29837e-07
-2.81821e-08
2.96526e-08
4.90448e-07
-3.52016e-08
-3.52027e-08
2.16223e-08
5.29837e-07
-2.81812e-08
1.44357e-08
5.59776e-07
-2.73067e-08
7.19317e-09
5.79954e-07
-2.58427e-08
-3.44686e-12
5.90076e-07
-2.52323e-08
-7.2013e-09
5.90075e-07
-2.52314e-08
-1.4443e-08
5.79954e-07
-2.5843e-08
-2.16286e-08
5.59776e-07
-2.73075e-08
-2.96605e-08
5.29836e-07
-2.81841e-08
4.90449e-07
-3.5206e-08
-3.52025e-08
3.39427e-08
3.3948e-08
5.02226e-07
-3.98292e-08
-3.98333e-08
2.51916e-08
2.88993e-08
5.42139e-07
-3.24445e-08
1.70158e-08
2.71616e-08
5.72464e-07
-3.16727e-08
8.51346e-09
2.5403e-08
5.92883e-07
-2.98274e-08
1.43638e-11
2.47083e-08
6.03121e-07
-2.92548e-08
-8.48496e-09
2.47072e-08
6.03122e-07
-2.9254e-08
-1.69915e-08
2.53992e-08
5.92885e-07
-2.98255e-08
-2.51727e-08
2.71562e-08
5.72468e-07
-3.16675e-08
-3.39311e-08
2.8895e-08
5.42146e-07
-3.24454e-08
3.39406e-08
5.02233e-07
-3.98272e-08
-3.98299e-08
2.88932e-08
2.5196e-08
5.42139e-07
-3.24423e-08
2.2524e-08
2.25302e-08
5.78716e-07
1.55726e-08
2.10898e-08
6.06442e-07
7.90379e-09
1.98737e-08
6.25118e-07
1.45508e-11
1.9331e-08
6.34492e-07
-7.87547e-09
1.93287e-08
6.34493e-07
-1.55452e-08
1.98691e-08
6.2512e-07
-2.25018e-08
2.1081e-08
6.06446e-07
-2.88793e-08
2.25189e-08
5.78722e-07
2.51841e-08
5.42147e-07
-3.24334e-08
2.71549e-08
1.70175e-08
5.72467e-07
-3.16674e-08
2.10834e-08
1.55765e-08
6.06443e-07
1.44698e-08
1.44759e-08
6.32266e-07
7.33741e-09
1.36629e-08
6.49657e-07
1.24752e-11
1.32651e-08
6.584e-07
-7.31128e-09
1.32636e-08
6.58401e-07
-1.44469e-08
1.36574e-08
6.49657e-07
-2.10644e-08
1.44646e-08
6.32269e-07
-2.71433e-08
1.55628e-08
6.06448e-07
1.70043e-08
5.72471e-07
-3.16624e-08
2.53974e-08
8.51284e-09
5.92885e-07
-2.98228e-08
1.98686e-08
7.90404e-09
6.2512e-07
1.36582e-08
7.33946e-09
6.49658e-07
6.9467e-09
6.94841e-09
6.66195e-07
1.07747e-11
6.74818e-09
6.74515e-07
-6.92634e-09
6.74474e-09
6.74516e-07
-1.3639e-08
6.94352e-09
6.66193e-07
-1.98516e-08
7.32979e-09
6.49659e-07
-2.53862e-08
7.89136e-09
6.25122e-07
8.499e-09
5.92889e-07
-2.98187e-08
2.47044e-08
1.50263e-11
6.03121e-07
-2.92514e-08
1.9326e-08
1.46798e-11
6.34493e-07
1.32611e-08
1.43907e-11
6.58399e-07
6.74605e-09
1.11965e-11
6.74517e-07
8.55621e-12
9.50833e-12
6.82632e-07
-6.72782e-09
7.31933e-12
6.82633e-07
-1.32447e-08
6.15845e-12
6.74516e-07
-1.93129e-08
4.12356e-12
6.58401e-07
-2.46952e-08
1.44278e-12
6.34495e-07
-3.41082e-13
6.03125e-07
-2.9248e-08
2.47036e-08
-8.48504e-09
6.03123e-07
-2.92525e-08
1.9325e-08
-7.87569e-09
6.34494e-07
1.32576e-08
-7.31085e-09
6.58401e-07
6.74307e-09
-6.92534e-09
6.74516e-07
6.65281e-12
-6.72875e-09
6.82634e-07
-6.7304e-09
-6.73032e-09
6.82633e-07
-1.32477e-08
-6.93072e-09
6.74518e-07
-1.93154e-08
-7.32022e-09
6.58402e-07
-2.46969e-08
-7.88495e-09
6.34493e-07
-8.49638e-09
6.03124e-07
-2.92491e-08
2.53963e-08
-1.69925e-08
5.92887e-07
-2.98249e-08
1.98653e-08
-1.55472e-08
6.25121e-07
1.36513e-08
-1.44493e-08
6.49659e-07
6.93993e-09
-1.36393e-08
6.66193e-07
5.01989e-12
-1.32458e-08
6.74516e-07
-6.93027e-09
-1.32477e-08
6.74516e-07
-1.3643e-08
-1.36444e-08
6.66195e-07
-1.98561e-08
-1.44549e-08
6.49659e-07
-2.53899e-08
-1.55534e-08
6.25121e-07
-1.69978e-08
5.92886e-07
-2.98196e-08
2.71531e-08
-2.51749e-08
5.72471e-07
-3.16676e-08
2.10777e-08
-2.25055e-08
6.06448e-07
1.44612e-08
-2.10674e-08
6.3227e-07
7.32717e-09
-1.98542e-08
6.49659e-07
3.07627e-12
-1.93152e-08
6.58401e-07
-7.3209e-09
-1.93158e-08
6.58401e-07
-1.44548e-08
-1.98578e-08
6.49659e-07
-2.10699e-08
-2.10701e-08
6.3227e-07
-2.71474e-08
-2.25091e-08
6.06446e-07
-2.51753e-08
5.72471e-07
-3.16627e-08
2.889e-08
-3.39352e-08
5.42147e-07
-3.2441e-08
2.25148e-08
-2.88844e-08
5.78722e-07
1.55583e-08
-2.71475e-08
6.06446e-07
7.89024e-09
-2.53891e-08
6.25121e-07
2.34886e-12
-2.46973e-08
6.34494e-07
-7.88514e-09
-2.46961e-08
6.34492e-07
-1.55525e-08
-2.53903e-08
6.2512e-07
-2.25073e-08
-2.71468e-08
6.06446e-07
-2.8883e-08
-2.88858e-08
5.78719e-07
-3.39334e-08
5.42146e-07
-3.24365e-08
3.39381e-08
5.02233e-07
-3.98278e-08
-3.98287e-08
2.51814e-08
5.42146e-07
-3.24382e-08
1.70026e-08
5.72471e-07
-3.16627e-08
8.49879e-09
5.92888e-07
-2.982e-08
3.1726e-12
6.03123e-07
-2.92483e-08
-8.49317e-09
6.03123e-07
-2.92479e-08
-1.69957e-08
5.92886e-07
-2.98188e-08
-2.51761e-08
5.72471e-07
-3.16617e-08
-3.39322e-08
5.42144e-07
-3.24367e-08
5.02233e-07
-3.98265e-08
-3.98243e-08
3.37918e-08
3.37872e-08
5.13673e-07
-3.95139e-08
-3.95125e-08
2.54882e-08
2.93418e-08
5.54285e-07
-3.31846e-08
1.73045e-08
2.79364e-08
5.85128e-07
-3.24137e-08
8.66747e-09
2.62852e-08
6.05865e-07
-3.06287e-08
-1.92532e-11
2.57043e-08
6.16272e-07
-3.01696e-08
-8.70141e-09
2.57054e-08
6.16272e-07
-3.01709e-08
-1.73352e-08
2.62892e-08
6.05864e-07
-3.06324e-08
-2.55132e-08
2.7945e-08
5.85125e-07
-3.24222e-08
-3.38088e-08
2.93484e-08
5.54279e-07
-3.31882e-08
3.38004e-08
5.13664e-07
-3.95196e-08
-3.95215e-08
2.93497e-08
2.54851e-08
5.54283e-07
-3.31908e-08
2.29778e-08
2.29702e-08
5.91455e-07
1.59208e-08
2.1805e-08
6.19629e-07
8.08587e-09
2.06553e-08
6.38582e-07
-1.64242e-11
2.02012e-08
6.48094e-07
-8.11536e-09
2.02038e-08
6.48094e-07
-1.595e-08
2.06619e-08
6.38583e-07
-2.3004e-08
2.18163e-08
6.19627e-07
-2.93678e-08
2.29838e-08
5.91451e-07
2.55019e-08
5.54278e-07
-3.32026e-08
2.79424e-08
1.73035e-08
5.85127e-07
-3.24188e-08
2.18108e-08
1.59172e-08
6.19626e-07
1.50308e-08
1.50271e-08
6.45826e-07
7.62246e-09
1.42644e-08
6.63455e-07
-1.25144e-11
1.39206e-08
6.72315e-07
-7.64814e-09
1.39235e-08
6.72315e-07
-1.50543e-08
1.4271e-08
6.63458e-07
-2.18319e-08
1.50386e-08
6.45826e-07
-2.79553e-08
1.59335e-08
6.19624e-07
1.73193e-08
5.85122e-07
-3.24246e-08
2.62901e-08
8.66816e-09
6.05864e-07
-3.06326e-08
2.06607e-08
8.08427e-09
6.38581e-07
1.42678e-08
7.62029e-09
6.63457e-07
7.26314e-09
7.26042e-09
6.80203e-07
-9.53737e-12
7.08715e-09
6.88622e-07
-7.28282e-09
7.08982e-09
6.88622e-07
-1.42875e-08
7.26565e-09
6.80204e-07
-2.06778e-08
7.6304e-09
6.63457e-07
-2.63035e-08
8.09817e-09
6.38582e-07
8.68455e-09
6.05861e-07
-3.06403e-08
2.57078e-08
-1.67311e-11
6.16271e-07
-3.01718e-08
2.02055e-08
-1.57364e-11
6.48093e-07
1.39227e-08
-1.50637e-11
6.72314e-07
7.08923e-09
-1.14179e-11
6.88622e-07
-8.46362e-12
-1.01247e-11
6.96827e-07
-7.10608e-09
-5.7969e-12
6.96828e-07
-1.39397e-08
-4.907e-12
6.88623e-07
-2.02189e-08
-4.15046e-12
6.72314e-07
-2.5717e-08
-1.37913e-12
6.48092e-07
-5.03742e-13
6.16269e-07
-3.01763e-08
2.57073e-08
-8.70101e-09
6.16271e-07
-3.01704e-08
2.0207e-08
-8.11598e-09
6.48093e-07
1.39267e-08
-7.64838e-09
6.72315e-07
7.09168e-09
-7.28299e-09
6.88623e-07
-6.10207e-12
-7.10637e-09
6.96829e-07
-7.10475e-09
-7.10238e-09
6.96828e-07
-1.39375e-08
-7.27729e-09
6.88622e-07
-2.02163e-08
-7.63818e-09
6.72314e-07
-2.57166e-08
-8.10447e-09
6.48093e-07
-8.68748e-09
6.16271e-07
-3.01772e-08
2.62909e-08
-1.73363e-08
6.05862e-07
-3.06322e-08
2.06644e-08
-1.59499e-08
6.38582e-07
1.42745e-08
-1.50533e-08
6.63457e-07
7.26838e-09
-1.42878e-08
6.80203e-07
-3.43139e-12
-1.39394e-08
6.88622e-07
-7.27801e-09
-1.39373e-08
6.88623e-07
-1.42827e-08
-1.42824e-08
6.80203e-07
-2.0673e-08
-1.50461e-08
6.63455e-07
-2.62981e-08
-1.59414e-08
6.38582e-07
-1.73264e-08
6.05863e-07
-3.06382e-08
2.7945e-08
-2.55138e-08
5.85123e-07
-3.24178e-08
2.1819e-08
-2.30006e-08
6.19624e-07
1.50411e-08
-2.18312e-08
6.45824e-07
7.63289e-09
-2.0676e-08
6.63457e-07
-2.31183e-12
-2.02171e-08
6.72315e-07
-7.63738e-09
-2.02155e-08
6.72314e-07
-1.50467e-08
-2.06738e-08
6.63456e-07
-2.18263e-08
-2.18249e-08
6.45825e-07
-2.79527e-08
-2.29941e-08
6.19625e-07
-2.55068e-08
5.85125e-07
-3.24265e-08
2.93534e-08
-3.38079e-08
5.54278e-07
-3.31889e-08
2.29873e-08
-2.93643e-08
5.9145e-07
1.59355e-08
-2.79547e-08
6.19623e-07
8.10062e-09
-2.62993e-08
6.3858e-07
-9.13396e-13
-2.57151e-08
6.48094e-07
-8.10447e-09
-2.57144e-08
6.48094e-07
-1.59402e-08
-2.62988e-08
6.38582e-07
-2.2995e-08
-2.79524e-08
6.19626e-07
-2.93593e-08
-2.93597e-08
5.91451e-07
-3.38037e-08
5.54281e-07
-3.31965e-08
3.37985e-08
5.13665e-07
-3.9522e-08
-3.95161e-08
2.55018e-08
5.54278e-07
-3.31968e-08
1.73217e-08
5.85124e-07
-3.2426e-08
8.68486e-09
6.05864e-07
-3.06407e-08
-2.25769e-12
6.16271e-07
-3.01785e-08
-8.6891e-09
6.16271e-07
-3.01765e-08
-1.73266e-08
6.05863e-07
-3.06386e-08
-2.55095e-08
5.85127e-07
-3.24256e-08
-3.38066e-08
5.5428e-07
-3.31976e-08
5.13669e-07
-3.9522e-08
-3.95224e-08
3.10913e-08
3.11001e-08
5.24272e-07
-3.63904e-08
-3.63982e-08
2.38624e-08
2.78047e-08
5.6571e-07
-3.20018e-08
1.62789e-08
2.68567e-08
5.97129e-07
-3.12779e-08
8.20136e-09
2.55775e-08
6.18221e-07
-2.98546e-08
1.41776e-11
2.51799e-08
6.28813e-07
-2.95336e-08
-8.17521e-09
2.51774e-08
6.28814e-07
-2.95328e-08
-1.62538e-08
2.5573e-08
6.1822e-07
-2.98516e-08
-2.384e-08
2.68462e-08
5.97129e-07
-3.12664e-08
-3.10732e-08
2.77961e-08
5.65713e-07
-3.19966e-08
3.10822e-08
5.24278e-07
-3.63868e-08
-3.63817e-08
2.77976e-08
2.38689e-08
5.65711e-07
-3.19957e-08
2.17595e-08
2.17661e-08
6.03538e-07
1.50466e-08
2.09792e-08
6.32219e-07
7.65623e-09
2.00576e-08
6.51494e-07
1.04633e-11
1.97496e-08
6.61171e-07
-7.63421e-09
1.97479e-08
6.6117e-07
-1.50247e-08
2.00519e-08
6.51493e-07
-2.17375e-08
2.09691e-08
6.32218e-07
-2.77812e-08
2.17513e-08
6.03539e-07
2.38484e-08
5.65714e-07
-3.19848e-08
2.68499e-08
1.62813e-08
5.97132e-07
-3.12706e-08
2.09735e-08
1.50493e-08
6.32218e-07
1.4456e-08
1.44607e-08
6.5886e-07
7.33803e-09
1.38509e-08
6.7678e-07
9.44716e-12
1.36144e-08
6.85783e-07
-7.32377e-09
1.36106e-08
6.85783e-07
-1.44397e-08
1.38462e-08
6.76779e-07
-2.0958e-08
1.44507e-08
6.58859e-07
-2.6839e-08
1.50359e-08
6.3222e-07
1.62651e-08
5.97132e-07
-3.12667e-08
2.55719e-08
8.20233e-09
6.18221e-07
-2.98515e-08
2.00533e-08
7.65799e-09
6.51494e-07
1.38473e-08
7.3429e-09
6.76781e-07
7.05155e-09
7.05402e-09
6.93797e-07
6.54058e-12
6.93213e-09
7.02349e-07
-7.03831e-09
6.92963e-09
7.02348e-07
-1.38356e-08
7.04806e-09
6.93795e-07
-2.00418e-08
7.33341e-09
6.76779e-07
-2.55637e-08
7.64445e-09
6.51495e-07
8.18547e-09
6.18222e-07
-2.98461e-08
2.51756e-08
1.45423e-11
6.28814e-07
-2.95321e-08
1.97453e-08
1.26802e-11
6.61171e-07
1.36092e-08
1.14072e-11
6.85783e-07
6.92957e-09
8.27503e-12
7.02348e-07
5.35803e-12
6.18471e-12
7.10678e-07
-6.91989e-09
3.88415e-12
7.10678e-07
-1.36005e-08
2.96042e-12
7.02347e-07
-1.97381e-08
1.78888e-12
6.85783e-07
-2.51698e-08
-1.64575e-13
6.61171e-07
-1.62233e-12
6.28816e-07
-2.95284e-08
2.51751e-08
-8.17376e-09
6.28814e-07
-2.95317e-08
1.97446e-08
-7.632e-09
6.61169e-07
1.36069e-08
-7.32019e-09
6.85785e-07
6.92677e-09
-7.03708e-09
7.02348e-07
2.52726e-12
-6.91924e-09
7.10679e-07
-6.9228e-09
-6.92063e-09
7.10678e-07
-1.36026e-08
-7.04301e-09
7.02348e-07
-1.97395e-08
-7.33039e-09
6.85784e-07
-2.51706e-08
-7.64351e-09
6.6117e-07
-8.18698e-09
6.28815e-07
-2.95298e-08
2.55708e-08
-1.6251e-08
6.1822e-07
-2.98506e-08
2.00479e-08
-1.5023e-08
6.51495e-07
1.38404e-08
-1.44385e-08
6.76779e-07
7.04622e-09
-1.3834e-08
6.93795e-07
1.20281e-12
-1.36e-08
7.02345e-07
-7.04415e-09
-1.36023e-08
7.02349e-07
-1.38392e-08
-1.38397e-08
6.93795e-07
-2.00458e-08
-1.44477e-08
6.7678e-07
-2.55677e-08
-1.50319e-08
6.51494e-07
-1.62622e-08
6.1822e-07
-2.98487e-08
2.68446e-08
-2.38382e-08
5.97134e-07
-3.12696e-08
2.0965e-08
-2.17389e-08
6.3222e-07
1.44452e-08
-2.0958e-08
6.58862e-07
7.32963e-09
-2.00408e-08
6.76779e-07
-2.39043e-12
-1.97374e-08
6.85783e-07
-7.33205e-09
-1.97396e-08
6.85782e-07
-1.44464e-08
-2.00456e-08
6.76779e-07
-2.09629e-08
-2.09647e-08
6.58861e-07
-2.68422e-08
-2.1745e-08
6.32218e-07
-2.38454e-08
5.97131e-07
-3.12662e-08
2.77915e-08
-3.10746e-08
5.65716e-07
-3.1995e-08
2.17483e-08
-2.77837e-08
6.03541e-07
1.5031e-08
-2.68401e-08
6.3222e-07
7.64115e-09
-2.5565e-08
6.51493e-07
-2.61643e-12
-2.51703e-08
6.61168e-07
-7.64655e-09
-2.51721e-08
6.61169e-07
-1.50334e-08
-2.55674e-08
6.51492e-07
-2.1746e-08
-2.68435e-08
6.32218e-07
-2.77903e-08
-2.77879e-08
6.03538e-07
-3.10795e-08
5.65714e-07
-3.19912e-08
3.10834e-08
5.24278e-07
-3.63819e-08
-3.63895e-08
2.38482e-08
5.65716e-07
-3.19877e-08
1.6262e-08
5.97133e-07
-3.12643e-08
8.18413e-09
6.18221e-07
-2.9846e-08
-2.98345e-12
6.28814e-07
-2.95283e-08
-8.18729e-09
6.28812e-07
-2.95276e-08
-1.62627e-08
6.18219e-07
-2.98465e-08
-2.38454e-08
5.97131e-07
-3.1265e-08
-3.10798e-08
5.65712e-07
-3.19892e-08
5.24275e-07
-3.63837e-08
-3.63852e-08
2.68425e-08
2.6837e-08
5.33403e-07
-3.14094e-08
-3.14055e-08
2.09306e-08
2.47113e-08
5.75776e-07
-2.88633e-08
1.43236e-08
2.41274e-08
6.07807e-07
-2.8196e-08
7.23443e-09
2.32506e-08
6.29272e-07
-2.72146e-08
-9.77011e-12
2.30115e-08
6.40056e-07
-2.70113e-08
-7.25203e-09
2.30129e-08
6.40057e-07
-2.70122e-08
-1.43395e-08
2.32552e-08
6.29271e-07
-2.72178e-08
-2.09485e-08
2.41354e-08
6.07808e-07
-2.82051e-08
-2.68584e-08
2.47211e-08
5.75773e-07
-2.88708e-08
2.6855e-08
5.33399e-07
-3.14161e-08
-3.14204e-08
2.47187e-08
2.09264e-08
5.75775e-07
-2.88709e-08
1.93414e-08
1.9336e-08
6.14283e-07
1.33261e-08
1.88724e-08
6.43491e-07
6.77546e-09
1.81958e-08
6.63099e-07
-7.66084e-12
1.80118e-08
6.7295e-07
-6.78885e-09
1.80119e-08
6.7295e-07
-1.33399e-08
1.81984e-08
6.63099e-07
-1.93572e-08
1.88795e-08
6.43491e-07
-2.4729e-08
1.9349e-08
6.14282e-07
2.09433e-08
5.75773e-07
-2.88778e-08
2.41332e-08
1.43206e-08
6.07807e-07
-2.82012e-08
1.88767e-08
1.33218e-08
6.43489e-07
1.30093e-08
1.30042e-08
6.70597e-07
6.60151e-09
1.25557e-08
6.88823e-07
-6.57255e-12
1.24137e-08
6.97988e-07
-6.61426e-09
1.24163e-08
6.97988e-07
-1.30168e-08
1.25597e-08
6.88823e-07
-1.88851e-08
1.30116e-08
6.70597e-07
-2.41405e-08
1.33327e-08
6.43491e-07
1.43338e-08
6.07806e-07
-2.82058e-08
2.32562e-08
7.23352e-09
6.2927e-07
-2.72182e-08
1.81984e-08
6.7723e-09
6.63099e-07
1.256e-08
6.59964e-09
6.88823e-07
6.38933e-09
6.38621e-09
7.06135e-07
-3.99119e-12
6.31369e-09
7.14842e-07
-6.39695e-09
6.31732e-09
7.1484e-07
-1.25664e-08
6.3908e-09
7.06137e-07
-1.82074e-08
6.60718e-09
6.88824e-07
-2.32616e-08
6.78361e-09
6.63097e-07
7.2467e-09
6.29269e-07
-2.72214e-08
2.30153e-08
-1.31057e-11
6.40057e-07
-2.70146e-08
1.8015e-08
-1.12157e-11
6.72951e-07
1.24186e-08
-1.0472e-11
6.97986e-07
6.31747e-09
-8.99667e-12
7.14841e-07
-2.31324e-12
-5.97182e-12
7.2332e-07
-6.32325e-09
-3.48987e-12
7.23321e-07
-1.24239e-08
-2.66966e-12
7.14842e-07
-1.80199e-08
-8.59881e-13
6.97986e-07
-2.30185e-08
1.02395e-12
6.7295e-07
1.56962e-12
6.40056e-07
-2.70146e-08
2.30162e-08
-7.25633e-09
6.40057e-07
-2.70142e-08
1.8016e-08
-6.79305e-09
6.72951e-07
1.24206e-08
-6.61604e-09
6.97988e-07
6.31928e-09
-6.40027e-09
7.14841e-07
-1.57466e-12
-6.32564e-09
7.23321e-07
-6.32191e-09
-6.32325e-09
7.2332e-07
-1.24215e-08
-6.39409e-09
7.1484e-07
-1.80188e-08
-6.60917e-09
6.97987e-07
-2.30183e-08
-6.78293e-09
6.7295e-07
-7.24446e-09
6.40057e-07
-2.70154e-08
2.32581e-08
-1.43444e-08
6.29271e-07
-2.72197e-08
1.82032e-08
-1.33433e-08
6.63099e-07
1.25648e-08
-1.30226e-08
6.88825e-07
6.3946e-09
-1.2572e-08
7.06135e-07
5.52544e-13
-1.2427e-08
7.1484e-07
-6.39307e-09
-1.24236e-08
7.14842e-07
-1.25638e-08
-1.25648e-08
7.06136e-07
-1.82024e-08
-1.30139e-08
6.88821e-07
-2.32579e-08
-1.33349e-08
6.63098e-07
-1.43364e-08
6.29271e-07
-2.72205e-08
2.41392e-08
-2.09516e-08
6.07806e-07
-2.82041e-08
1.88836e-08
-1.936e-08
6.4349e-07
1.3017e-08
-1.88892e-08
6.70597e-07
6.61211e-09
-1.82083e-08
6.88823e-07
3.26563e-12
-1.80217e-08
6.97987e-07
-6.60593e-09
-1.802e-08
6.97985e-07
-1.30128e-08
-1.82031e-08
6.88823e-07
-1.88828e-08
-1.88837e-08
6.70597e-07
-2.41387e-08
-1.93529e-08
6.4349e-07
-2.09462e-08
6.07808e-07
-2.82055e-08
2.4727e-08
-2.68601e-08
5.75771e-07
-2.8873e-08
1.9355e-08
-2.47303e-08
6.1428e-07
1.33383e-08
-2.41419e-08
6.43489e-07
6.78744e-09
-2.32604e-08
6.63098e-07
5.04214e-12
-2.30175e-08
6.72949e-07
-6.779e-09
-2.30169e-08
6.72951e-07
-1.33331e-08
-2.32579e-08
6.63099e-07
-1.93528e-08
-2.41396e-08
6.43492e-07
-2.47242e-08
-2.47252e-08
6.14284e-07
-2.6858e-08
5.75775e-07
-2.88751e-08
2.68558e-08
5.33398e-07
-3.14209e-08
-3.14165e-08
2.09486e-08
5.7577e-07
-2.88755e-08
1.43394e-08
6.07806e-07
-2.8207e-08
7.25254e-09
6.2927e-07
-2.72214e-08
6.18044e-12
6.40058e-07
-2.70164e-08
-7.24177e-09
6.40057e-07
-2.70153e-08
-1.4334e-08
6.29272e-07
-2.72201e-08
-2.09453e-08
6.07809e-07
-2.82066e-08
-2.68561e-08
5.75774e-07
-2.88748e-08
5.33401e-07
-3.14167e-08
-3.14194e-08
2.35657e-08
2.35713e-08
5.4148e-07
-2.76042e-08
-2.76087e-08
1.86048e-08
2.24139e-08
5.84862e-07
-2.65407e-08
1.27736e-08
2.21698e-08
6.17525e-07
-2.60603e-08
6.48499e-09
2.16834e-08
6.39387e-07
-2.55095e-08
5.44772e-12
2.15822e-08
6.50372e-07
-2.54175e-08
-6.47556e-09
2.15821e-08
6.50372e-07
-2.54165e-08
-1.27675e-08
2.16815e-08
6.39387e-07
-2.55075e-08
-1.85964e-08
2.2165e-08
6.17525e-07
-2.60528e-08
-2.35575e-08
2.24091e-08
5.84861e-07
-2.65369e-08
2.35576e-08
5.41483e-07
-2.76033e-08
-2.75967e-08
2.24079e-08
1.86089e-08
5.84862e-07
-2.65346e-08
1.74927e-08
1.74976e-08
6.2412e-07
1.19903e-08
1.73028e-08
6.5386e-07
6.09247e-09
1.68738e-08
6.73808e-07
3.20991e-12
1.6794e-08
6.83831e-07
-6.08701e-09
1.6793e-08
6.83831e-07
-1.19836e-08
1.68723e-08
6.73806e-07
-1.74853e-08
1.72979e-08
6.53859e-07
-2.24028e-08
1.74907e-08
6.24119e-07
1.85958e-08
5.84861e-07
-2.65301e-08
2.21655e-08
1.27778e-08
6.17526e-07
-2.60563e-08
1.7298e-08
1.19946e-08
6.5386e-07
1.18785e-08
1.18833e-08
6.81434e-07
6.02499e-09
1.15917e-08
6.9996e-07
2.91636e-12
1.15314e-08
7.09276e-07
-6.02191e-09
1.15301e-08
7.09275e-07
-1.1878e-08
1.15888e-08
6.99958e-07
-1.72962e-08
1.18789e-08
6.81432e-07
-2.21646e-08
1.19883e-08
6.5386e-07
1.2768e-08
6.17526e-07
-2.60561e-08
2.16797e-08
6.48788e-09
6.39387e-07
-2.55056e-08
1.68689e-08
6.09604e-09
6.73808e-07
1.1587e-08
6.02929e-09
6.99959e-07
5.88118e-09
5.88499e-09
7.17551e-07
2.11349e-12
5.85315e-09
7.26399e-07
-5.87906e-09
5.85161e-09
7.26398e-07
-1.15871e-08
5.88058e-09
7.1755e-07
-1.68687e-08
6.02401e-09
6.99959e-07
-2.16795e-08
6.08989e-09
6.73807e-07
6.47706e-09
6.39387e-07
-2.55058e-08
2.15783e-08
9.25008e-12
6.50373e-07
-2.54133e-08
1.67893e-08
8.00951e-12
6.83832e-07
1.15279e-08
7.49229e-12
7.09273e-07
5.85023e-09
5.58423e-12
7.26401e-07
-2.69348e-14
3.48713e-12
7.35018e-07
-5.84954e-09
2.39865e-12
7.35017e-07
-1.15287e-08
4.00149e-13
7.26398e-07
-1.67928e-08
-8.10991e-13
7.09274e-07
-2.15813e-08
-1.284e-12
6.83832e-07
-4.23946e-12
6.50374e-07
-2.54168e-08
2.15787e-08
-6.46999e-09
6.50372e-07
-2.54133e-08
1.67883e-08
-6.08109e-09
6.83831e-07
1.15253e-08
-6.01555e-09
7.09274e-07
5.84732e-09
-5.87343e-09
7.26398e-07
-1.80985e-12
-5.84473e-09
7.35017e-07
-5.85239e-09
-5.84669e-09
7.35018e-07
-1.15309e-08
-5.87887e-09
7.26398e-07
-1.67924e-08
-6.02435e-09
7.09274e-07
-2.15816e-08
-6.09215e-09
6.83833e-07
-6.48201e-09
6.50373e-07
-2.54162e-08
2.16768e-08
-1.27603e-08
6.39387e-07
-2.55048e-08
1.68658e-08
-1.19777e-08
6.73807e-07
1.15858e-08
-1.18708e-08
6.99959e-07
5.87801e-09
-1.1581e-08
7.1755e-07
-3.45568e-12
-1.15228e-08
7.26399e-07
-5.88416e-09
-1.15241e-08
7.264e-07
-1.15918e-08
-1.15875e-08
7.17552e-07
-1.6872e-08
-1.18821e-08
6.9996e-07
-2.16822e-08
-1.19885e-08
6.73807e-07
-1.27718e-08
6.39388e-07
-2.55083e-08
2.21603e-08
-1.85904e-08
6.17527e-07
-2.60531e-08
1.7294e-08
-1.74798e-08
6.5386e-07
1.18749e-08
-1.729e-08
6.81434e-07
6.01899e-09
-1.68633e-08
6.9996e-07
-6.26753e-12
-1.6786e-08
7.09275e-07
-6.03188e-09
-1.67896e-08
7.09275e-07
-1.18845e-08
-1.68695e-08
6.9996e-07
-1.72985e-08
-1.72986e-08
6.81434e-07
-2.21662e-08
-1.74896e-08
6.53859e-07
-1.8598e-08
6.17525e-07
-2.60547e-08
2.24026e-08
-2.35528e-08
5.84861e-07
-2.65309e-08
1.74848e-08
-2.23998e-08
6.24121e-07
1.19823e-08
-2.21601e-08
6.5386e-07
6.08413e-09
-2.16763e-08
6.73807e-07
-7.77458e-12
-2.15792e-08
6.83832e-07
-6.09958e-09
-2.15814e-08
6.83833e-07
-1.19944e-08
-2.16819e-08
6.73806e-07
-1.74923e-08
-2.2167e-08
6.53859e-07
-2.24092e-08
-2.2407e-08
6.24118e-07
-2.3559e-08
5.84858e-07
-2.65355e-08
2.35539e-08
5.41484e-07
-2.75954e-08
-2.75956e-08
1.85905e-08
5.84862e-07
-2.653e-08
1.27617e-08
6.17528e-07
-2.60509e-08
6.47111e-09
6.39388e-07
-2.5504e-08
-9.27962e-12
6.50374e-07
-2.54154e-08
-6.48856e-09
6.50371e-07
-2.54156e-08
-1.27745e-08
6.39386e-07
-2.55063e-08
-1.85994e-08
6.17523e-07
-2.6055e-08
-2.35601e-08
5.84857e-07
-2.65324e-08
5.41476e-07
-2.7599e-08
-2.75975e-08
1.96184e-08
1.96124e-08
5.48172e-07
-2.29652e-08
-2.2961e-08
1.56527e-08
1.89993e-08
5.92501e-07
-2.26698e-08
1.07813e-08
1.89058e-08
6.25735e-07
-2.22414e-08
5.49036e-09
1.8661e-08
6.47964e-07
-2.1948e-08
-1.05533e-12
1.86403e-08
6.59135e-07
-2.19154e-08
-5.48853e-09
1.86406e-08
6.59136e-07
-2.19156e-08
-1.07798e-08
1.86627e-08
6.47965e-07
-2.19496e-08
-1.5653e-08
1.89084e-08
6.25736e-07
-2.22462e-08
-1.96209e-08
1.90008e-08
5.92501e-07
-2.26732e-08
1.96218e-08
5.48171e-07
-2.2964e-08
-2.29682e-08
1.9005e-08
1.56482e-08
5.925e-07
-2.2675e-08
1.48489e-08
1.48435e-08
6.32422e-07
1.01638e-08
1.48016e-08
6.62649e-07
5.16975e-09
1.45332e-08
6.82929e-07
1.15427e-12
1.45079e-08
6.93127e-07
-5.16546e-09
1.45072e-08
6.93128e-07
-1.0161e-08
1.45327e-08
6.82931e-07
-1.48477e-08
1.48032e-08
6.62651e-07
-1.90016e-08
1.48475e-08
6.32425e-07
1.56557e-08
5.92499e-07
-2.26741e-08
1.89107e-08
1.07775e-08
6.25735e-07
-2.22462e-08
1.48055e-08
1.016e-08
6.62648e-07
1.01841e-08
1.01804e-08
6.9068e-07
5.17354e-09
9.98863e-09
7.09513e-07
1.04665e-12
9.96839e-09
7.18985e-07
-5.16854e-09
9.97052e-09
7.18983e-07
-1.01767e-08
9.987e-09
7.09513e-07
-1.48001e-08
1.01816e-08
6.9068e-07
-1.89051e-08
1.01629e-08
6.62652e-07
1.07819e-08
6.25737e-07
-2.22433e-08
1.86666e-08
5.48456e-09
6.47964e-07
-2.19517e-08
1.45358e-08
5.16348e-09
6.8293e-07
9.99197e-09
5.17009e-09
7.09512e-07
5.07119e-09
5.06783e-09
7.27389e-07
3.58173e-12
5.05719e-09
7.3638e-07
-5.06582e-09
5.05888e-09
7.3638e-07
-9.98446e-09
5.07004e-09
7.27389e-07