/*--------------------------------*- C++ -*----------------------------------*\
| =========                 |                                                 |
| \\      /  F ield         | OpenFOAM: The Open Source CFD Toolbox           |
|  \\    /   O peration     | Version:  2406                                  |
|   \\  /    A nd           | Website:  www.openfoam.com                      |
|    \\/     M anipulation  |                                                 |
\*---------------------------------------------------------------------------*/
FoamFile
{
    version     2.0;
    format      ascii;
    arch        "LSB;label=32;scalar=64";
    class       volVectorField;
    location    "1.5";
    object      U;
}
// * * * * * * * * * * * * * * * * * * * * * * * * * * * * * * * * * * * * * //

dimensions      [0 1 -1 0 0 0 0];

internalField   nonuniform List<vector> 
15000
(
(0.000144952 0.000144939 0.00994759)
(0.000108359 0.000136063 0.0099494)
(7.4469e-05 0.000124283 0.00995019)
(4.39024e-05 0.00011729 0.00995058)
(1.46233e-05 0.000112977 0.0099507)
(-1.45593e-05 0.000112987 0.00995073)
(-4.3835e-05 0.000117276 0.00995052)
(-7.44033e-05 0.000124277 0.0099501)
(-0.000108305 0.000136058 0.0099493)
(-0.000144918 0.000144942 0.00994762)
(0.000136064 0.00010836 0.00994944)
(9.62492e-05 9.62701e-05 0.00995212)
(6.62749e-05 8.8302e-05 0.00995281)
(3.87527e-05 8.31981e-05 0.00995265)
(1.27405e-05 8.03963e-05 0.00995249)
(-1.26585e-05 8.03933e-05 0.0099525)
(-3.86755e-05 8.31923e-05 0.00995255)
(-6.61984e-05 8.82958e-05 0.0099526)
(-9.61945e-05 9.62519e-05 0.00995193)
(-0.000136027 0.000108346 0.00994919)
(0.000124263 7.4477e-05 0.00995019)
(8.82865e-05 6.62959e-05 0.00995278)
(6.03013e-05 6.03203e-05 0.00995298)
(3.51564e-05 5.64317e-05 0.00995252)
(1.15111e-05 5.44629e-05 0.00995229)
(-1.14286e-05 5.44565e-05 0.00995228)
(-3.50766e-05 5.64068e-05 0.00995248)
(-6.02235e-05 6.02934e-05 0.00995277)
(-8.82292e-05 6.62516e-05 0.00995255)
(-0.000124238 7.44538e-05 0.00995001)
(0.000117262 4.39048e-05 0.00995061)
(8.3187e-05 3.87694e-05 0.00995264)
(5.64104e-05 3.51697e-05 0.00995251)
(3.27119e-05 3.27328e-05 0.00995208)
(1.0687e-05 3.1524e-05 0.00995174)
(-1.06268e-05 3.15228e-05 0.00995175)
(-3.26465e-05 3.27174e-05 0.00995195)
(-5.63441e-05 3.51413e-05 0.00995239)
(-8.31399e-05 3.87288e-05 0.00995253)
(-0.000117244 4.38725e-05 0.00995054)
(0.00011297 1.46243e-05 0.00995068)
(8.03846e-05 1.27389e-05 0.0099525)
(5.44489e-05 1.15253e-05 0.00995228)
(3.15073e-05 1.07009e-05 0.00995178)
(1.03006e-05 1.03056e-05 0.0099515)
(-1.02378e-05 1.0297e-05 0.00995149)
(-3.14511e-05 1.06871e-05 0.00995171)
(-5.43972e-05 1.14956e-05 0.00995227)
(-8.03449e-05 1.27039e-05 0.00995255)
(-0.000112945 1.45915e-05 0.00995072)
(0.000112969 -1.45444e-05 0.00995063)
(8.03842e-05 -1.26544e-05 0.0099524)
(5.44392e-05 -1.14307e-05 0.0099522)
(3.15065e-05 -1.06209e-05 0.00995171)
(1.02808e-05 -1.02351e-05 0.00995146)
(-1.02509e-05 -1.02531e-05 0.00995145)
(-3.14603e-05 -1.06316e-05 0.00995178)
(-5.44052e-05 -1.14671e-05 0.00995233)
(-8.03529e-05 -1.26847e-05 0.0099526)
(-0.00011295 -1.45796e-05 0.00995078)
(0.000117273 -4.38332e-05 0.00995042)
(8.31784e-05 -3.86849e-05 0.00995244)
(5.63873e-05 -3.50824e-05 0.00995238)
(3.26919e-05 -3.26597e-05 0.00995198)
(1.06743e-05 -3.14598e-05 0.00995174)
(-1.06357e-05 -3.14659e-05 0.00995183)
(-3.26645e-05 -3.26652e-05 0.00995207)
(-5.63656e-05 -3.51001e-05 0.00995255)
(-8.3156e-05 -3.86962e-05 0.00995268)
(-0.00011726 -4.38521e-05 0.00995058)
(0.000124264 -7.44224e-05 0.00995001)
(8.82681e-05 -6.6207e-05 0.00995252)
(6.02738e-05 -6.02434e-05 0.00995273)
(3.51235e-05 -5.63547e-05 0.00995241)
(1.14834e-05 -5.44036e-05 0.00995229)
(-1.14538e-05 -5.44117e-05 0.00995226)
(-3.50921e-05 -5.6368e-05 0.00995257)
(-6.02542e-05 -6.02546e-05 0.00995286)
(-8.82461e-05 -6.62227e-05 0.00995271)
(-0.00012425 -7.44181e-05 0.00995009)
(0.000136058 -0.000108329 0.00994918)
(9.62272e-05 -9.62199e-05 0.009952)
(6.62403e-05 -8.8251e-05 0.00995258)
(3.87158e-05 -8.31552e-05 0.00995261)
(1.27007e-05 -8.03531e-05 0.00995255)
(-1.26769e-05 -8.03567e-05 0.00995258)
(-3.86886e-05 -8.31549e-05 0.00995271)
(-6.62206e-05 -8.82499e-05 0.00995265)
(-9.62014e-05 -9.62284e-05 0.00995202)
(-0.000136036 -0.00010832 0.00994931)
(0.00014494 -0.000144928 0.0099477)
(0.000108327 -0.000136043 0.00994928)
(7.44394e-05 -0.000124257 0.0099501)
(4.38763e-05 -0.000117262 0.00995054)
(1.46015e-05 -0.000112958 0.00995075)
(-1.45675e-05 -0.000112954 0.00995077)
(-4.38357e-05 -0.000117262 0.00995056)
(-7.4423e-05 -0.000124251 0.00995019)
(-0.000108307 -0.000136049 0.00994929)
(-0.000144926 -0.000144912 0.00994784)
(0.000199058 0.000199039 0.010374)
(0.000144195 0.000170257 0.0103407)
(9.99488e-05 0.000166778 0.010317)
(5.93671e-05 0.000160519 0.010302)
(1.95619e-05 0.000157863 0.0102943)
(-1.96993e-05 0.000157864 0.0102943)
(-5.94924e-05 0.00016053 0.0103021)
(-0.000100068 0.00016678 0.0103171)
(-0.000144279 0.000170259 0.010341)
(-0.000199102 0.000199046 0.0103741)
(0.000170275 0.000144166 0.0103407)
(0.00013106 0.000131013 0.0103059)
(9.53977e-05 0.00012631 0.0102825)
(5.69168e-05 0.000122514 0.0102681)
(1.90003e-05 0.000120887 0.0102611)
(-1.91424e-05 0.000120895 0.0102612)
(-5.7054e-05 0.000122532 0.0102682)
(-9.55313e-05 0.000126335 0.0102829)
(-0.000131153 0.000131045 0.0103062)
(-0.000170312 0.000144195 0.0103411)
(0.000166812 9.99293e-05 0.0103169)
(0.000126358 9.53644e-05 0.0102826)
(9.0912e-05 9.08765e-05 0.0102604)
(5.40812e-05 8.77621e-05 0.0102464)
(1.80113e-05 8.61251e-05 0.0102397)
(-1.81424e-05 8.61324e-05 0.0102397)
(-5.42103e-05 8.77984e-05 0.0102465)
(-9.10377e-05 9.09258e-05 0.0102606)
(-0.000126439 9.54389e-05 0.010283)
(-0.000166852 9.99959e-05 0.0103174)
(0.000160559 5.93545e-05 0.010302)
(0.000122549 5.68949e-05 0.0102681)
(8.78023e-05 5.40595e-05 0.0102465)
(5.22442e-05 5.2217e-05 0.0102329)
(1.73767e-05 5.12578e-05 0.0102264)
(-1.7479e-05 5.12624e-05 0.0102264)
(-5.23498e-05 5.22481e-05 0.010233)
(-8.79044e-05 5.4107e-05 0.0102466)
(-0.00012262 5.69601e-05 0.0102683)
(-0.000160584 5.94246e-05 0.0103022)
(0.000157892 1.95708e-05 0.0102943)
(0.000120923 1.8995e-05 0.0102612)
(8.61542e-05 1.79857e-05 0.0102398)
(5.12795e-05 1.73562e-05 0.0102264)
(1.70422e-05 1.7024e-05 0.0102201)
(-1.71291e-05 1.70415e-05 0.0102201)
(-5.13729e-05 1.73867e-05 0.0102265)
(-8.62377e-05 1.8043e-05 0.0102398)
(-0.000120978 1.90681e-05 0.0102611)
(-0.00015791 1.96408e-05 0.0102943)
(0.00015788 -1.97096e-05 0.0102944)
(0.00012093 -1.91375e-05 0.0102613)
(8.61654e-05 -1.81407e-05 0.0102399)
(5.12984e-05 -1.74798e-05 0.0102265)
(1.70467e-05 -1.71272e-05 0.0102201)
(-1.71097e-05 -1.71059e-05 0.0102201)
(-5.13708e-05 -1.74526e-05 0.0102264)
(-8.62143e-05 -1.80854e-05 0.0102397)
(-0.000120967 -1.90841e-05 0.0102611)
(-0.000157912 -1.96395e-05 0.0102942)
(0.000160546 -5.94826e-05 0.0103023)
(0.000122552 -5.70381e-05 0.0102684)
(8.78349e-05 -5.41998e-05 0.0102466)
(5.22901e-05 -5.23353e-05 0.010233)
(1.74011e-05 -5.13652e-05 0.0102264)
(-1.74544e-05 -5.13523e-05 0.0102264)
(-5.23264e-05 -5.23303e-05 0.0102328)
(-8.78796e-05 -5.41673e-05 0.0102464)
(-0.000122585 -5.70126e-05 0.0102681)
(-0.000160569 -5.94519e-05 0.0103021)
(0.000166806 -0.000100037 0.0103173)
(0.00012636 -9.55107e-05 0.010283)
(9.09639e-05 -9.10045e-05 0.0102607)
(5.41348e-05 -8.78787e-05 0.0102466)
(1.80507e-05 -8.622e-05 0.0102398)
(-1.80993e-05 -8.62112e-05 0.0102397)
(-5.41697e-05 -8.78667e-05 0.0102465)
(-9.10033e-05 -9.09847e-05 0.0102605)
(-0.000126394 -9.54978e-05 0.0102828)
(-0.00016684 -0.000100029 0.0103172)
(0.000170272 -0.000144238 0.010341)
(0.000131086 -0.000131103 0.0103062)
(9.54651e-05 -0.000126397 0.0102829)
(5.6988e-05 -0.000122592 0.0102682)
(1.90605e-05 -0.000120962 0.0102611)
(-1.90994e-05 -0.00012096 0.010261)
(-5.70171e-05 -0.000122594 0.0102681)
(-9.55065e-05 -0.000126399 0.0102828)
(-0.000131119 -0.00013111 0.0103061)
(-0.000170284 -0.000144235 0.010341)
(0.000199069 -0.000199081 0.0103741)
(0.000144234 -0.000170286 0.010341)
(0.000100014 -0.000166821 0.0103172)
(5.94195e-05 -0.000160561 0.0103021)
(1.96212e-05 -0.000157902 0.0102943)
(-1.96746e-05 -0.0001579 0.0102942)
(-5.94623e-05 -0.000160572 0.0103021)
(-0.000100057 -0.000166817 0.0103172)
(-0.000144269 -0.000170312 0.0103409)
(-0.000199103 -0.000199088 0.0103741)
(0.000222002 0.000222045 0.0105044)
(0.00016585 0.000192531 0.0104688)
(0.000116151 0.000193633 0.0104415)
(6.97424e-05 0.000187132 0.0104238)
(2.28305e-05 0.000185691 0.0104145)
(-2.26383e-05 0.000185695 0.0104144)
(-6.95701e-05 0.000187126 0.0104237)
(-0.000116008 0.000193613 0.0104412)
(-0.000165731 0.000192539 0.0104684)
(-0.000221959 0.000222013 0.0105042)
(0.000192492 0.000165892 0.0104688)
(0.000153028 0.000153074 0.0104345)
(0.000111452 0.000149675 0.0104059)
(6.73686e-05 0.000145761 0.0103868)
(2.26239e-05 0.000144617 0.0103771)
(-2.24332e-05 0.000144606 0.0103771)
(-6.71967e-05 0.00014574 0.0103867)
(-0.000111281 0.000149654 0.0104054)
(-0.000152901 0.000153039 0.0104339)
(-0.000192431 0.000165833 0.0104681)
(0.000193581 0.00011618 0.0104415)
(0.000149637 0.000111495 0.0104058)
(0.000108394 0.000108447 0.0103773)
(6.49408e-05 0.000105538 0.010358)
(2.18045e-05 0.000104169 0.0103486)
(-2.1642e-05 0.000104157 0.0103486)
(-6.47886e-05 0.000105498 0.010358)
(-0.00010825 0.000108375 0.0103769)
(-0.000149536 0.000111408 0.0104053)
(-0.00019354 0.00011609 0.0104408)
(0.000187088 6.97446e-05 0.0104238)
(0.000145728 6.73778e-05 0.0103867)
(0.000105496 6.49599e-05 0.010358)
(6.3255e-05 6.32693e-05 0.0103389)
(2.12703e-05 6.24437e-05 0.0103295)
(-2.11424e-05 6.24259e-05 0.0103295)
(-6.31299e-05 6.3243e-05 0.0103388)
(-0.000105369 6.48999e-05 0.0103578)
(-0.000145635 6.73016e-05 0.0103865)
(-0.000187045 6.9663e-05 0.0104235)
(0.000185677 2.28243e-05 0.0104144)
(0.000144584 2.26247e-05 0.010377)
(0.000104139 2.18245e-05 0.0103485)
(6.24274e-05 2.12806e-05 0.0103296)
(2.09515e-05 2.09688e-05 0.0103203)
(-2.08459e-05 2.09509e-05 0.0103203)
(-6.23158e-05 2.12495e-05 0.0103295)
(-0.000104038 2.1762e-05 0.0103484)
(-0.000144511 2.25336e-05 0.010377)
(-0.000185631 2.27262e-05 0.0104143)
(0.00018567 -2.26324e-05 0.0104143)
(0.000144591 -2.24389e-05 0.0103769)
(0.000104119 -2.16452e-05 0.0103484)
(6.2408e-05 -2.11419e-05 0.0103295)
(2.09396e-05 -2.08471e-05 0.0103203)
(-2.08602e-05 -2.0859e-05 0.0103203)
(-6.23355e-05 -2.11732e-05 0.0103296)
(-0.000104052 -2.17036e-05 0.0103485)
(-0.000144533 -2.25128e-05 0.0103771)
(-0.000185636 -2.27251e-05 0.0104145)
(0.000187119 -6.95764e-05 0.0104234)
(0.000145718 -6.71941e-05 0.0103864)
(0.000105462 -6.47836e-05 0.0103578)
(6.32101e-05 -6.31258e-05 0.0103388)
(2.1235e-05 -6.23329e-05 0.0103296)
(-2.11727e-05 -6.2337e-05 0.0103296)
(-6.31501e-05 -6.31593e-05 0.0103389)
(-0.000105405 -6.48423e-05 0.010358)
(-0.000145662 -6.72464e-05 0.0103867)
(-0.000187073 -6.96309e-05 0.0104237)
(0.000193602 -0.000116006 0.010441)
(0.000149626 -0.000111307 0.0104053)
(0.000108349 -0.000108278 0.0103768)
(6.48779e-05 -0.000105386 0.0103578)
(2.17503e-05 -0.000104043 0.0103484)
(-2.17078e-05 -0.000104058 0.0103485)
(-6.48361e-05 -0.000105416 0.010358)
(-0.000108308 -0.000108301 0.010377)
(-0.000149575 -0.000111345 0.0104055)
(-0.000193562 -0.000116039 0.0104411)
(0.000192507 -0.000165772 0.0104683)
(0.000152991 -0.000152938 0.0104339)
(0.000111375 -0.000149566 0.0104053)
(6.72849e-05 -0.000145654 0.0103866)
(2.2538e-05 -0.000144531 0.0103771)
(-2.25042e-05 -0.000144527 0.0103772)
(-6.72439e-05 -0.000145667 0.0103868)
(-0.000111335 -0.000149577 0.0104055)
(-0.000152948 -0.00015296 0.010434)
(-0.000192464 -0.000165772 0.0104683)
(0.000222006 -0.000221981 0.0105042)
(0.000165798 -0.000192476 0.0104684)
(0.000116077 -0.000193561 0.0104412)
(6.96478e-05 -0.000187067 0.0104236)
(2.27383e-05 -0.000185638 0.0104144)
(-2.26942e-05 -0.000185629 0.0104144)
(-6.96116e-05 -0.000187075 0.0104237)
(-0.000116039 -0.000193563 0.0104411)
(-0.000165761 -0.000192479 0.0104684)
(-0.00022198 -0.000221971 0.0105043)
(0.000217074 0.000217025 0.010867)
(0.000165708 0.000193658 0.0108185)
(0.000116632 0.000198061 0.0107847)
(7.04689e-05 0.000193107 0.0107632)
(2.25972e-05 0.000193101 0.0107521)
(-2.28248e-05 0.000193105 0.0107522)
(-7.06813e-05 0.000193121 0.0107633)
(-0.00011682 0.000198099 0.0107852)
(-0.000165864 0.000193671 0.0108192)
(-0.000217143 0.0002171 0.0108674)
(0.000193715 0.000165672 0.0108186)
(0.000155507 0.000155437 0.0107717)
(0.000112679 0.000154267 0.0107377)
(6.87068e-05 0.000151198 0.0107163)
(2.27329e-05 0.000150821 0.0107053)
(-2.29237e-05 0.000150825 0.0107054)
(-6.88895e-05 0.000151228 0.0107165)
(-0.000112874 0.000154316 0.0107383)
(-0.000155654 0.000155489 0.0107724)
(-0.000193808 0.000165769 0.0108195)
(0.000198114 0.00011661 0.0107849)
(0.000154308 0.000112644 0.0107378)
(0.000112054 0.00011202 0.0107046)
(6.73656e-05 0.000109881 0.0106833)
(2.24865e-05 0.000109223 0.0106726)
(-2.26453e-05 0.000109231 0.0106726)
(-6.75168e-05 0.000109913 0.0106834)
(-0.000112202 0.000112089 0.0107051)
(-0.000154426 0.000112739 0.0107385)
(-0.000198167 0.000116711 0.0107857)
(0.000193138 7.0473e-05 0.0107632)
(0.000151237 6.86876e-05 0.0107164)
(0.000109909 6.73472e-05 0.0106834)
(6.61521e-05 6.613e-05 0.0106621)
(2.21795e-05 6.56427e-05 0.0106515)
(-2.23005e-05 6.56646e-05 0.0106515)
(-6.62725e-05 6.61627e-05 0.0106622)
(-0.000110031 6.74086e-05 0.0106837)
(-0.000151344 6.87727e-05 0.0107167)
(-0.000193202 7.05706e-05 0.0107637)
(0.000193127 2.2606e-05 0.0107522)
(0.000150842 2.27328e-05 0.0107054)
(0.000109241 2.24666e-05 0.0106727)
(6.56625e-05 2.21667e-05 0.0106515)
(2.20066e-05 2.1999e-05 0.010641)
(-2.21085e-05 2.20147e-05 0.010641)
(-6.57673e-05 2.22029e-05 0.0106515)
(-0.000109349 2.25275e-05 0.0106728)
(-0.000150925 2.28123e-05 0.0107055)
(-0.000193159 2.27074e-05 0.0107524)
(0.000193109 -2.2818e-05 0.0107523)
(0.000150848 -2.29249e-05 0.0107056)
(0.000109258 -2.26459e-05 0.0106728)
(6.56796e-05 -2.23082e-05 0.0106516)
(2.2021e-05 -2.21228e-05 0.010641)
(-2.21077e-05 -2.20935e-05 0.010641)
(-6.57571e-05 -2.22793e-05 0.0106515)
(-0.000109326 -2.25906e-05 0.0106727)
(-0.000150911 -2.28453e-05 0.0107053)
(-0.000193163 -2.27246e-05 0.0107522)
(0.000193128 -7.06871e-05 0.0107637)
(0.000151245 -6.88955e-05 0.0107167)
(0.000109936 -6.75195e-05 0.0106837)
(6.61833e-05 -6.62732e-05 0.0106622)
(2.22112e-05 -6.57689e-05 0.0106514)
(-2.22693e-05 -6.57521e-05 0.0106514)
(-6.62507e-05 -6.6243e-05 0.0106621)
(-0.000109989 -6.74625e-05 0.0106834)
(-0.000151299 -6.8825e-05 0.0107164)
(-0.000193166 -7.06024e-05 0.0107634)
(0.000198094 -0.000116822 0.0107855)
(0.000154319 -0.000112862 0.0107385)
(0.000112115 -0.0001122 0.0107053)
(6.74277e-05 -0.000110031 0.0106836)
(2.25429e-05 -0.000109335 0.0106728)
(-2.2583e-05 -0.000109318 0.0106727)
(-6.74585e-05 -0.000109993 0.0106835)
(-0.000112156 -0.000112142 0.010705)
(-0.000154372 -0.000112801 0.0107382)
(-0.000198149 -0.00011675 0.0107854)
(0.000193683 -0.000165853 0.0108194)
(0.000155528 -0.00015562 0.0107724)
(0.000112757 -0.000154411 0.0107384)
(6.87953e-05 -0.000151314 0.0107165)
(2.28238e-05 -0.000150908 0.0107053)
(-2.28473e-05 -0.000150902 0.0107052)
(-6.88237e-05 -0.000151298 0.0107163)
(-0.000112802 -0.000154374 0.0107382)
(-0.000155572 -0.000155565 0.0107722)
(-0.00019373 -0.000165801 0.0108193)
(0.000217061 -0.000217146 0.0108675)
(0.000165767 -0.000193774 0.0108192)
(0.000116722 -0.00019816 0.0107854)
(7.05739e-05 -0.000193193 0.0107635)
(2.27109e-05 -0.000193169 0.0107522)
(-2.27354e-05 -0.000193152 0.0107522)
(-7.06056e-05 -0.000193181 0.0107634)
(-0.000116762 -0.000198141 0.0107854)
(-0.000165821 -0.000193742 0.0108191)
(-0.000217121 -0.000217106 0.0108674)
(0.000196693 0.000196769 0.010986)
(0.000153025 0.000183514 0.0109397)
(0.000108367 0.000190379 0.0109048)
(6.58348e-05 0.000188283 0.0108812)
(2.10428e-05 0.000189639 0.0108693)
(-2.08711e-05 0.000189632 0.0108692)
(-6.56776e-05 0.000188259 0.010881)
(-0.00010821 0.000190312 0.0109042)
(-0.000152881 0.000183479 0.0109388)
(-0.000196623 0.000196667 0.0109851)
(0.000183455 0.000153091 0.0109396)
(0.000146897 0.000146947 0.0108948)
(0.00010568 0.000148335 0.0108589)
(6.46895e-05 0.000146865 0.0108345)
(2.12774e-05 0.000147385 0.0108221)
(-2.11502e-05 0.000147372 0.010822)
(-6.45601e-05 0.000146843 0.0108342)
(-0.00010553 0.000148293 0.0108582)
(-0.000146771 0.000146886 0.0108939)
(-0.000183377 0.000152962 0.0109385)
(0.000190322 0.000108397 0.0109045)
(0.000148299 0.000105718 0.0108587)
(0.000107519 0.000107556 0.0108225)
(6.46754e-05 0.000106637 0.010798)
(2.16e-05 0.000106867 0.0107858)
(-2.15022e-05 0.000106844 0.0107858)
(-6.45898e-05 0.000106603 0.010798)
(-0.000107409 0.000107483 0.010822)
(-0.000148211 0.000105617 0.0108579)
(-0.000190281 0.000108277 0.0109036)
(0.000188243 6.58431e-05 0.010881)
(0.000146845 6.47009e-05 0.0108343)
(0.000106601 6.47049e-05 0.010798)
(6.4161e-05 6.41742e-05 0.0107734)
(2.15562e-05 6.41556e-05 0.0107612)
(-2.14851e-05 6.41386e-05 0.0107612)
(-6.4086e-05 6.41341e-05 0.0107734)
(-0.000106519 6.46597e-05 0.0107977)
(-0.000146775 6.46361e-05 0.010834)
(-0.000188208 6.57525e-05 0.0108805)
(0.00018962 2.10471e-05 0.0108692)
(0.000147359 2.12879e-05 0.010822)
(0.000106826 2.16233e-05 0.0107857)
(6.41381e-05 2.15751e-05 0.0107612)
(2.15645e-05 2.158e-05 0.0107491)
(-2.15097e-05 2.15638e-05 0.0107491)
(-6.40743e-05 2.15573e-05 0.0107612)
(-0.000106773 2.1567e-05 0.0107856)
(-0.000147308 2.12059e-05 0.0108219)
(-0.000189597 2.09402e-05 0.0108689)
(0.000189617 -2.0865e-05 0.0108691)
(0.000147359 -2.11342e-05 0.0108218)
(0.000106822 -2.14867e-05 0.0107856)
(6.41167e-05 -2.14754e-05 0.0107612)
(2.15511e-05 -2.1505e-05 0.0107491)
(-2.15255e-05 -2.15102e-05 0.0107491)
(-6.40928e-05 -2.1515e-05 0.0107612)
(-0.000106784 -2.15391e-05 0.0107857)
(-0.000147319 -2.12065e-05 0.0108222)
(-0.000189598 -2.09608e-05 0.0108692)
(0.000188253 -6.5658e-05 0.0108805)
(0.00014682 -6.45422e-05 0.010834)
(0.000106569 -6.45713e-05 0.0107976)
(6.41144e-05 -6.40755e-05 0.0107734)
(2.15358e-05 -6.40864e-05 0.0107612)
(-2.15152e-05 -6.40888e-05 0.0107613)
(-6.41081e-05 -6.40987e-05 0.0107735)
(-0.000106545 -6.46319e-05 0.0107979)
(-0.00014681 -6.46111e-05 0.0108343)
(-0.000188239 -6.57446e-05 0.0108809)
(0.000190325 -0.000108188 0.0109038)
(0.000148257 -0.000105533 0.0108579)
(0.000107461 -0.000107416 0.0108218)
(6.46129e-05 -0.000106527 0.0107977)
(2.1547e-05 -0.000106769 0.0107856)
(-2.15612e-05 -0.000106787 0.0107857)
(-6.46207e-05 -0.000106561 0.0107979)
(-0.000107457 -0.000107462 0.0108221)
(-0.000148253 -0.000105592 0.0108582)
(-0.000190302 -0.000108261 0.0109039)
(0.00018347 -0.000152889 0.0109386)
(0.000146847 -0.000146785 0.0108938)
(0.000105588 -0.000148218 0.010858)
(6.45965e-05 -0.000146773 0.0108341)
(2.11928e-05 -0.000147312 0.0108221)
(-2.12157e-05 -0.00014733 0.0108222)
(-6.46255e-05 -0.0001468 0.0108344)
(-0.000105588 -0.000148272 0.0108583)
(-0.000146847 -0.000146831 0.0108941)
(-0.000183451 -0.000152935 0.0109388)
(0.000196704 -0.000196619 0.0109852)
(0.000152953 -0.000183409 0.0109387)
(0.000108264 -0.000190283 0.010904)
(6.57197e-05 -0.000188221 0.0108808)
(2.09384e-05 -0.000189598 0.0108692)
(-2.0962e-05 -0.0001896 0.0108692)
(-6.57415e-05 -0.000188234 0.0108809)
(-0.000108265 -0.000190299 0.010904)
(-0.000152937 -0.000183434 0.0109388)
(-0.00019667 -0.00019667 0.0109853)
(0.000167978 0.000167918 0.011324)
(0.000132726 0.000163704 0.0112731)
(9.45198e-05 0.000171261 0.0112356)
(5.75252e-05 0.00017168 0.0112105)
(1.81683e-05 0.000173813 0.011198)
(-1.82853e-05 0.00017383 0.0111982)
(-5.76205e-05 0.000171702 0.0112107)
(-9.46329e-05 0.000171316 0.0112362)
(-0.000132848 0.000163753 0.0112741)
(-0.000168038 0.000168036 0.011325)
(0.000163769 0.000132681 0.0112732)
(0.000130424 0.000130368 0.0112203)
(9.31961e-05 0.000133405 0.0111825)
(5.71137e-05 0.000133264 0.0111579)
(1.84932e-05 0.000134332 0.0111455)
(-1.85823e-05 0.00013433 0.0111456)
(-5.71841e-05 0.00013329 0.0111581)
(-9.33004e-05 0.000133443 0.0111832)
(-0.000130513 0.00013044 0.0112213)
(-0.000163809 0.000132803 0.0112745)
(0.000171306 9.44956e-05 0.0112359)
(0.000133438 9.31654e-05 0.0111827)
(9.66526e-05 9.66207e-05 0.011145)
(5.81576e-05 9.66669e-05 0.0111205)
(1.92987e-05 9.75151e-05 0.0111082)
(-1.93733e-05 9.75193e-05 0.0111082)
(-5.82167e-05 9.66869e-05 0.0111205)
(-9.67029e-05 9.66645e-05 0.0111455)
(-0.000133492 9.32449e-05 0.0111835)
(-0.000171342 9.45931e-05 0.0112369)
(0.000171711 5.75158e-05 0.0112107)
(0.000133296 5.70882e-05 0.0111581)
(9.66819e-05 5.81318e-05 0.0111206)
(5.81847e-05 5.81574e-05 0.0110962)
(1.94646e-05 5.84707e-05 0.0110839)
(-1.95097e-05 5.84965e-05 0.011084)
(-5.82133e-05 5.81725e-05 0.0110962)
(-9.67451e-05 5.81735e-05 0.0111208)
(-0.000133346 5.71448e-05 0.0111584)
(-0.000171728 5.75926e-05 0.0112112)
(0.000173847 1.8158e-05 0.0111982)
(0.000134341 1.84786e-05 0.0111456)
(9.75395e-05 1.92838e-05 0.0111083)
(5.85034e-05 1.94384e-05 0.0110839)
(1.96432e-05 1.96154e-05 0.0110717)
(-1.96719e-05 1.96326e-05 0.0110718)
(-5.85348e-05 1.94708e-05 0.0110839)
(-9.75811e-05 1.9328e-05 0.0111084)
(-0.000134373 1.85463e-05 0.0111457)
(-0.000173846 1.82426e-05 0.0111986)
(0.000173843 -1.83131e-05 0.0111983)
(0.000134351 -1.8611e-05 0.0111457)
(9.75469e-05 -1.93945e-05 0.0111084)
(5.85112e-05 -1.95372e-05 0.011084)
(1.96483e-05 -1.96877e-05 0.0110718)
(-1.96692e-05 -1.96758e-05 0.0110717)
(-5.85163e-05 -1.9504e-05 0.0110839)
(-9.75774e-05 -1.93473e-05 0.0111083)
(-0.000134364 -1.85435e-05 0.0111455)
(-0.000173846 -1.82268e-05 0.0111982)
(0.000171714 -5.76653e-05 0.0112111)
(0.000133313 -5.72149e-05 0.0111584)
(9.6715e-05 -5.82361e-05 0.0111209)
(5.82117e-05 -5.82361e-05 0.0110962)
(1.94893e-05 -5.85522e-05 0.0110838)
(-1.94881e-05 -5.85357e-05 0.0110838)
(-5.8203e-05 -5.82023e-05 0.0110961)
(-9.67166e-05 -5.819e-05 0.0111206)
(-0.000133305 -5.71472e-05 0.011158)
(-0.00017171 -5.75848e-05 0.0112108)
(0.000171329 -9.46616e-05 0.0112367)
(0.000133474 -9.332e-05 0.0111835)
(9.67029e-05 -9.67326e-05 0.0111457)
(5.82103e-05 -9.67679e-05 0.0111208)
(1.93544e-05 -9.75886e-05 0.0111084)
(-1.9328e-05 -9.75717e-05 0.0111083)
(-5.81763e-05 -9.67249e-05 0.0111206)
(-9.66865e-05 -9.66832e-05 0.0111454)
(-0.000133455 -9.32588e-05 0.0111832)
(-0.000171325 -9.46084e-05 0.0112365)
(0.000163776 -0.000132843 0.0112744)
(0.000130493 -0.000130514 0.0112214)
(9.32855e-05 -0.000133507 0.0111835)
(5.71797e-05 -0.00013333 0.0111582)
(1.8573e-05 -0.000134368 0.0111455)
(-1.85275e-05 -0.00013437 0.0111454)
(-5.71333e-05 -0.000133313 0.0111579)
(-9.32496e-05 -0.000133472 0.0111831)
(-0.000130467 -0.000130464 0.011221)
(-0.000163765 -0.00013281 0.0112742)
(0.000168019 -0.000168061 0.011325)
(0.000132825 -0.000163797 0.0112743)
(9.46358e-05 -0.000171341 0.0112366)
(5.7627e-05 -0.000171727 0.0112109)
(1.82883e-05 -0.000173856 0.0111982)
(-1.82198e-05 -0.000173839 0.0111981)
(-5.75692e-05 -0.000171704 0.0112108)
(-9.45967e-05 -0.000171328 0.0112364)
(-0.000132804 -0.000163786 0.0112741)
(-0.000168019 -0.000168048 0.0113249)
(0.000146526 0.000146582 0.0113732)
(0.000116426 0.000149901 0.0113336)
(8.35215e-05 0.000158234 0.0112995)
(5.07263e-05 0.000161055 0.0112749)
(1.61778e-05 0.000163787 0.0112628)
(-1.61127e-05 0.000163781 0.0112627)
(-5.06832e-05 0.000161036 0.0112747)
(-8.34743e-05 0.000158186 0.0112989)
(-0.000116359 0.000149872 0.0113325)
(-0.000146498 0.000146488 0.0113719)
(0.000149845 0.000116469 0.0113334)
(0.000117751 0.000117791 0.0112873)
(8.37637e-05 0.000122421 0.0112508)
(5.10265e-05 0.000123762 0.0112252)
(1.6492e-05 0.000125319 0.0112126)
(-1.64625e-05 0.000125316 0.0112125)
(-5.09926e-05 0.00012376 0.011225)
(-8.37064e-05 0.000122402 0.0112501)
(-0.000117705 0.000117755 0.0112863)
(-0.000149827 0.000116368 0.0113321)
(0.000158188 8.35504e-05 0.0112991)
(0.000122399 8.37923e-05 0.0112506)
(8.83594e-05 8.83983e-05 0.0112129)
(5.29351e-05 8.94547e-05 0.0111872)
(1.75955e-05 9.07841e-05 0.0111746)
(-1.75734e-05 9.077e-05 0.0111746)
(-5.29282e-05 8.94309e-05 0.0111871)
(-8.83456e-05 8.83663e-05 0.0112124)
(-0.000122387 8.37445e-05 0.0112498)
(-0.000158186 8.34807e-05 0.0112981)
(0.000161016 5.0752e-05 0.0112747)
(0.000123746 5.10504e-05 0.011225)
(8.94171e-05 5.29615e-05 0.0111871)
(5.35093e-05 5.3532e-05 0.0111616)
(1.7894e-05 5.41382e-05 0.0111491)
(-1.78848e-05 5.41333e-05 0.011149)
(-5.35101e-05 5.35107e-05 0.0111616)
(-8.93971e-05 5.29397e-05 0.0111869)
(-0.000123743 5.10291e-05 0.0112246)
(-0.000161015 5.06981e-05 0.0112741)
(0.000163762 1.61989e-05 0.0112627)
(0.000125284 1.65226e-05 0.0112124)
(9.07583e-05 1.76219e-05 0.0111745)
(5.41198e-05 1.79233e-05 0.011149)
(1.81943e-05 1.82124e-05 0.0111365)
(-1.81963e-05 1.82124e-05 0.0111365)
(-5.41199e-05 1.79053e-05 0.0111491)
(-9.07579e-05 1.75811e-05 0.0111744)
(-0.000125303 1.64785e-05 0.0112123)
(-0.000163786 1.61231e-05 0.0112622)
(0.000163764 -1.60806e-05 0.0112625)
(0.00012529 -1.64261e-05 0.0112123)
(9.07389e-05 -1.75342e-05 0.0111744)
(5.4106e-05 -1.78625e-05 0.011149)
(1.81847e-05 -1.81665e-05 0.0111365)
(-1.8207e-05 -1.81757e-05 0.0111366)
(-5.41394e-05 -1.7882e-05 0.011149)
(-9.0767e-05 -1.7574e-05 0.0111744)
(-0.0001253 -1.64888e-05 0.0112126)
(-0.000163779 -1.6159e-05 0.0112626)
(0.000161017 -5.06424e-05 0.0112743)
(0.000123719 -5.09544e-05 0.0112247)
(8.93997e-05 -5.28824e-05 0.0111869)
(5.35015e-05 -5.34648e-05 0.0111615)
(1.78771e-05 -5.40938e-05 0.0111491)
(-1.791e-05 -5.41003e-05 0.0111491)
(-5.35326e-05 -5.34992e-05 0.0111617)
(-8.94341e-05 -5.29396e-05 0.011187)
(-0.000123753 -5.10254e-05 0.011225)
(-0.000161052 -5.07272e-05 0.0112746)
(0.000158177 -8.34311e-05 0.0112983)
(0.000122368 -8.36693e-05 0.0112497)
(8.83459e-05 -8.83124e-05 0.0112121)
(5.29013e-05 -8.93778e-05 0.0111869)
(1.75524e-05 -9.07201e-05 0.0111744)
(-1.76232e-05 -9.07322e-05 0.0111744)
(-5.29659e-05 -8.94087e-05 0.0111871)
(-8.83841e-05 -8.83786e-05 0.0112124)
(-0.000122408 -8.3744e-05 0.0112501)
(-0.000158199 -8.35037e-05 0.0112986)
(0.000149845 -0.000116333 0.0113321)
(0.000117711 -0.000117682 0.0112861)
(8.37071e-05 -0.000122352 0.0112498)
(5.09808e-05 -0.000123708 0.0112249)
(1.64399e-05 -0.000125275 0.0112126)
(-1.65233e-05 -0.000125303 0.0112127)
(-5.10677e-05 -0.000123753 0.0112252)
(-8.37693e-05 -0.000122409 0.0112502)
(-0.000117765 -0.000117748 0.0112866)
(-0.00014988 -0.000116391 0.0113324)
(0.000146481 -0.000146464 0.0113718)
(0.000116341 -0.000149825 0.0113322)
(8.34435e-05 -0.000158157 0.0112985)
(5.064e-05 -0.000161009 0.0112744)
(1.60992e-05 -0.000163771 0.0112626)
(-1.62056e-05 -0.000163775 0.0112627)
(-5.07395e-05 -0.000161037 0.0112747)
(-8.35222e-05 -0.000158204 0.0112987)
(-0.000116395 -0.000149858 0.0113325)
(-0.000146514 -0.000146493 0.0113721)
(0.000121364 0.000121306 0.0116673)
(9.72256e-05 0.00012775 0.0116293)
(7.02208e-05 0.000135171 0.0115954)
(4.25888e-05 0.000139021 0.0115714)
(1.36342e-05 0.000141821 0.0115594)
(-1.36281e-05 0.000141825 0.0115596)
(-4.25723e-05 0.000139036 0.0115716)
(-7.02122e-05 0.000135211 0.011596)
(-9.72435e-05 0.000127771 0.0116304)
(-0.000121354 0.000121383 0.0116686)
(0.000127793 9.71864e-05 0.0116296)
(9.9725e-05 9.96832e-05 0.0115802)
(7.09921e-05 0.00010452 0.0115433)
(4.31432e-05 0.000106389 0.0115187)
(1.39093e-05 0.00010801 0.0115063)
(-1.38881e-05 0.000108001 0.0115064)
(-4.31052e-05 0.000106402 0.0115189)
(-7.09842e-05 0.000104529 0.011544)
(-9.97122e-05 9.97044e-05 0.0115811)
(-0.000127765 9.7256e-05 0.0116308)
(0.000135215 7.01874e-05 0.0115958)
(0.000104548 7.09592e-05 0.0115436)
(7.57698e-05 7.57453e-05 0.0115056)
(4.53754e-05 7.71704e-05 0.0114805)
(1.51003e-05 7.8595e-05 0.0114678)
(-1.50785e-05 7.85981e-05 0.0114678)
(-4.53293e-05 7.71561e-05 0.0114804)
(-7.57243e-05 7.57532e-05 0.0115061)
(-0.000104507 7.09909e-05 0.0115444)
(-0.000135186 7.02292e-05 0.0115968)
(0.000139058 4.25637e-05 0.0115716)
(0.00010642 4.311e-05 0.0115189)
(7.71821e-05 4.53489e-05 0.0114805)
(4.61196e-05 4.60885e-05 0.0114553)
(1.54359e-05 4.67476e-05 0.0114426)
(-1.53927e-05 4.67633e-05 0.0114427)
(-4.60743e-05 4.60871e-05 0.0114552)
(-7.71432e-05 4.53574e-05 0.0114807)
(-0.00010638 4.3118e-05 0.0115193)
(-0.000139017 4.25978e-05 0.0115722)
(0.000141846 1.35969e-05 0.0115596)
(0.000108021 1.38782e-05 0.0115065)
(7.86222e-05 1.50739e-05 0.0114678)
(4.67804e-05 1.54119e-05 0.0114427)
(1.57762e-05 1.57457e-05 0.0114301)
(-1.57325e-05 1.57614e-05 0.0114301)
(-4.67252e-05 1.54328e-05 0.0114426)
(-7.85865e-05 1.5101e-05 0.011468)
(-0.000107977 1.39168e-05 0.0115066)
(-0.000141788 1.36362e-05 0.0115601)
(0.000141837 -1.36651e-05 0.0115598)
(0.000108026 -1.39279e-05 0.0115066)
(7.86305e-05 -1.51152e-05 0.011468)
(4.67865e-05 -1.54446e-05 0.0114427)
(1.57784e-05 -1.57694e-05 0.0114301)
(-1.57274e-05 -1.57521e-05 0.0114301)
(-4.67262e-05 -1.54188e-05 0.0114426)
(-7.85885e-05 -1.50806e-05 0.0114679)
(-0.000107972 -1.38845e-05 0.0115063)
(-0.0001418 -1.3607e-05 0.0115596)
(0.000139047 -4.26169e-05 0.011572)
(0.000106411 -4.31449e-05 0.0115192)
(7.71859e-05 -4.53673e-05 0.0114807)
(4.61255e-05 -4.61022e-05 0.0114553)
(1.54575e-05 -4.67622e-05 0.0114426)
(-1.53862e-05 -4.67518e-05 0.0114426)
(-4.60547e-05 -4.60734e-05 0.0114552)
(-7.71271e-05 -4.53266e-05 0.0114806)
(-0.000106353 -4.30817e-05 0.0115189)
(-0.000138991 -4.25324e-05 0.0115717)
(0.000135223 -7.02527e-05 0.0115966)
(0.000104546 -7.10168e-05 0.0115444)
(7.57861e-05 -7.57767e-05 0.0115064)
(4.53919e-05 -7.7198e-05 0.0114808)
(1.51271e-05 -7.862e-05 0.011468)
(-1.50416e-05 -7.86069e-05 0.011468)
(-4.52905e-05 -7.71481e-05 0.0114806)
(-7.57035e-05 -7.5721e-05 0.011506)
(-0.000104472 -7.09425e-05 0.011544)
(-0.000135173 -7.01645e-05 0.0115963)
(0.000127793 -9.72761e-05 0.0116308)
(9.97378e-05 -9.97427e-05 0.0115814)
(7.1017e-05 -0.000104552 0.0115444)
(4.31556e-05 -0.000106396 0.0115191)
(1.39597e-05 -0.000107994 0.0115064)
(-1.38383e-05 -0.000107998 0.0115062)
(-4.30367e-05 -0.000106364 0.0115187)
(-7.09196e-05 -0.000104495 0.0115439)
(-9.96516e-05 -9.96578e-05 0.0115808)
(-0.000127719 -9.71942e-05 0.0116304)
(0.000121387 -0.000121401 0.0116687)