/*--------------------------------*- C++ -*----------------------------------*\
| =========                 |                                                 |
| \\      /  F ield         | OpenFOAM: The Open Source CFD Toolbox           |
|  \\    /   O peration     | Version:  2406                                  |
|   \\  /    A nd           | Website:  www.openfoam.com                      |
|    \\/     M anipulation  |                                                 |
\*---------------------------------------------------------------------------*/
FoamFile
{
    version     2.0;
    format      ascii;
    arch        "LSB;label=32;scalar=64";
    class       surfaceScalarField;
    location    "5";
    object      phi;
}
// * * * * * * * * * * * * * * * * * * * * * * * * * * * * * * * * * * * * * //

dimensions      [0 3 -1 0 0 0 0];

oriented        oriented;

internalField   nonuniform List<scalar> 
43700
(
1.81947e-08
1.81942e-08
4.79355e-07
-2.28616e-08
-2.28616e-08
1.35377e-08
1.67119e-08
5.18565e-07
-2.1237e-08
8.97661e-09
1.54839e-08
5.48374e-07
-1.9867e-08
4.49014e-09
1.47818e-08
5.68471e-07
-1.9055e-08
-1.10188e-13
1.43641e-08
5.78568e-07
-1.85128e-08
-4.49089e-09
1.43635e-08
5.78569e-07
-1.85123e-08
-8.97589e-09
1.47826e-08
5.6847e-07
-1.90541e-08
-1.35376e-08
1.5483e-08
5.48374e-07
-1.9866e-08
-1.81938e-08
1.67127e-08
5.18565e-07
-2.12363e-08
1.81944e-08
4.79355e-07
-2.28619e-08
-2.28624e-08
1.67132e-08
1.35373e-08
5.18566e-07
-2.12375e-08
1.234e-08
1.2339e-08
5.54589e-07
8.08636e-09
1.13859e-08
5.82041e-07
4.01656e-09
1.07946e-08
6.00553e-07
-5.7225e-13
1.04752e-08
6.09877e-07
-4.0166e-09
1.04747e-08
6.09877e-07
-8.08649e-09
1.07938e-08
6.00554e-07
-1.23385e-08
1.13863e-08
5.8204e-07
-1.67125e-08
1.23394e-08
5.54589e-07
1.35372e-08
5.18565e-07
-2.12364e-08
1.5484e-08
8.97586e-09
5.48373e-07
-1.98652e-08
1.13878e-08
8.08612e-09
5.8204e-07
7.45441e-09
7.45391e-09
6.0774e-07
3.69356e-09
7.04169e-09
6.25076e-07
-3.7181e-13
6.83369e-09
6.33812e-07
-3.69389e-09
6.83467e-09
6.33812e-07
-7.45373e-09
7.04275e-09
6.25076e-07
-1.13863e-08
7.45404e-09
6.07739e-07
-1.54839e-08
8.08666e-09
5.82042e-07
8.97634e-09
5.48373e-07
-1.9865e-08
1.47824e-08
4.49017e-09
5.68471e-07
-1.90542e-08
1.07962e-08
4.01583e-09
6.00553e-07
7.04258e-09
3.69298e-09
6.25075e-07
3.47781e-09
3.47636e-09
6.41632e-07
1.92639e-13
3.37149e-09
6.49982e-07
-3.4771e-09
3.37189e-09
6.49982e-07
-7.04263e-09
3.47757e-09
6.41632e-07
-1.07944e-08
3.69414e-09
6.25075e-07
-1.47826e-08
4.01644e-09
6.00553e-07
4.49138e-09
5.68471e-07
-1.90544e-08
1.43631e-08
-2.95545e-13
5.78568e-07
-1.85118e-08
1.04764e-08
-1.78525e-13
6.09877e-07
6.835e-09
-5.68054e-13
6.33813e-07
3.37251e-09
-9.40218e-13
6.49982e-07
7.67154e-13
-1.35607e-12
6.58137e-07
-3.3711e-09
-2.05996e-12
6.58137e-07
-6.83492e-09
-8.61084e-13
6.49982e-07
-1.04751e-08
-1.05259e-13
6.33813e-07
-1.43628e-08
-4.13875e-14
6.09878e-07
2.0228e-14
5.78568e-07
-1.85119e-08
1.43627e-08
-4.4906e-09
5.78568e-07
-1.85125e-08
1.0476e-08
-4.01722e-09
6.09877e-07
6.83497e-09
-3.69438e-09
6.33812e-07
3.37234e-09
-3.47797e-09
6.49982e-07
5.70101e-13
-3.37175e-09
6.58137e-07
-3.37126e-09
-3.37306e-09
6.58137e-07
-6.83439e-09
-3.47738e-09
6.4998e-07
-1.04749e-08
-3.69373e-09
6.33813e-07
-1.43631e-08
-4.01622e-09
6.09877e-07
-4.4899e-09
5.78568e-07
-1.85121e-08
1.47825e-08
-8.97613e-09
5.6847e-07
-1.90553e-08
1.07952e-08
-8.08627e-09
6.00553e-07
7.04177e-09
-7.45299e-09
6.25076e-07
3.47783e-09
-7.04156e-09
6.41632e-07
3.69563e-13
-6.8339e-09
6.49982e-07
-3.47646e-09
-6.83457e-09
6.49981e-07
-7.04072e-09
-7.04244e-09
6.41632e-07
-1.07942e-08
-7.45439e-09
6.25075e-07
-1.4782e-08
-8.08649e-09
6.00554e-07
-8.9763e-09
5.68472e-07
-1.9054e-08
1.54847e-08
-1.35363e-08
5.48373e-07
-1.98663e-08
1.13876e-08
-1.23399e-08
5.8204e-07
7.45349e-09
-1.13865e-08
6.07739e-07
3.69423e-09
-1.0795e-08
6.25075e-07
2.34342e-14
-1.04753e-08
6.33812e-07
-3.69323e-09
-1.04748e-08
6.33813e-07
-7.45308e-09
-1.07946e-08
6.25075e-07
-1.13864e-08
-1.1386e-08
6.07739e-07
-1.5484e-08
-1.23402e-08
5.82041e-07
-1.35382e-08
5.48373e-07
-1.98639e-08
1.67121e-08
-1.81935e-08
5.18565e-07
-2.12368e-08
1.23398e-08
-1.67126e-08
5.54587e-07
8.08608e-09
-1.54843e-08
5.8204e-07
4.01687e-09
-1.47817e-08
6.00553e-07
-3.09747e-14
-1.43626e-08
6.09877e-07
-4.01696e-09
-1.43629e-08
6.09877e-07
-8.08484e-09
-1.4781e-08
6.00553e-07
-1.23394e-08
-1.54843e-08
5.82041e-07
-1.67123e-08
-1.67116e-08
5.54589e-07
-1.81938e-08
5.18565e-07
-2.1236e-08
1.81936e-08
4.79355e-07
-2.28619e-08
-2.28629e-08
1.35372e-08
5.18565e-07
-2.12361e-08
8.97691e-09
5.48373e-07
-1.98656e-08
4.4915e-09
5.6847e-07
-1.90544e-08
2.06632e-13
5.78569e-07
-1.85117e-08
-4.49026e-09
5.78568e-07
-1.85116e-08
-8.97652e-09
5.68471e-07
-1.90551e-08
-1.35357e-08
5.48373e-07
-1.98656e-08
-1.81943e-08
5.18565e-07
-2.12368e-08
4.79355e-07
-2.28622e-08
-2.28621e-08
2.95575e-08
2.95582e-08
4.90503e-07
-3.51316e-08
-3.51325e-08
2.15447e-08
2.48248e-08
5.29877e-07
-2.81224e-08
1.43816e-08
2.29797e-08
5.59802e-07
-2.72445e-08
7.16931e-09
2.14967e-08
5.79973e-07
-2.57842e-08
5.4677e-14
2.08209e-08
5.90091e-07
-2.51753e-08
-7.1679e-09
2.08212e-08
5.90091e-07
-2.51758e-08
-1.43814e-08
2.14964e-08
5.79972e-07
-2.57848e-08
-2.15443e-08
2.29797e-08
5.59802e-07
-2.72453e-08
-2.95571e-08
2.48241e-08
5.29877e-07
-2.81233e-08
2.95578e-08
4.90503e-07
-3.51313e-08
-3.51316e-08
2.4824e-08
2.15445e-08
5.29878e-07
-2.81225e-08
1.91251e-08
1.91249e-08
5.65988e-07
1.30707e-08
1.76489e-08
5.93427e-07
6.60111e-09
1.65908e-08
6.11928e-07
-2.52415e-13
1.60671e-08
6.21232e-07
-6.60076e-09
1.60671e-08
6.21232e-07
-1.30705e-08
1.65906e-08
6.11929e-07
-1.91249e-08
1.76485e-08
5.93426e-07
-2.48238e-08
1.91239e-08
5.65989e-07
2.15438e-08
5.29877e-07
-2.81214e-08
2.29788e-08
1.43816e-08
5.59802e-07
-2.72455e-08
1.76477e-08
1.30714e-08
5.93426e-07
1.19941e-08
1.19946e-08
6.19047e-07
6.05854e-09
1.12798e-08
6.36323e-07
5.12595e-13
1.09157e-08
6.45022e-07
-6.05778e-09
1.09162e-08
6.45022e-07
-1.19942e-08
1.12796e-08
6.36323e-07
-1.76483e-08
1.19943e-08
6.19046e-07
-2.2979e-08
1.307e-08
5.93426e-07
1.43808e-08
5.59801e-07
-2.72446e-08
2.14959e-08
7.16977e-09
5.79972e-07
-2.57848e-08
1.659e-08
6.60239e-09
6.11928e-07
1.12794e-08
6.05871e-09
6.36322e-07
5.70354e-09
5.70459e-09
6.52784e-07
2.94766e-13
5.52074e-09
6.61081e-07
-5.7042e-09
5.52115e-09
6.61081e-07
-1.12798e-08
5.70443e-09
6.52784e-07
-1.65899e-08
6.05835e-09
6.36322e-07
-2.14956e-08
6.6011e-09
6.11928e-07
7.1694e-09
5.79972e-07
-2.57848e-08
2.08206e-08
1.07474e-12
5.90092e-07
-2.51751e-08
1.60663e-08
1.20476e-12
6.21232e-07
1.09149e-08
7.91882e-13
6.45021e-07
5.52025e-09
5.85674e-13
6.61081e-07
3.73232e-13
5.12196e-13
6.69178e-07
-5.52051e-09
1.66117e-12
6.69177e-07
-1.09158e-08
5.74551e-13
6.6108e-07
-1.60674e-08
6.09063e-13
6.45021e-07
-2.08206e-08
4.83543e-13
6.21232e-07
6.17693e-13
5.90091e-07
-2.51758e-08
2.08202e-08
-7.1674e-09
5.90091e-07
-2.5175e-08
1.60667e-08
-6.59943e-09
6.21232e-07
1.09154e-08
-6.05657e-09
6.45021e-07
5.52011e-09
-5.70255e-09
6.61081e-07
-3.1435e-13
-5.52005e-09
6.69177e-07
-5.5206e-09
-5.51945e-09
6.69178e-07
-1.09157e-08
-5.70341e-09
6.61081e-07
-1.60663e-08
-6.05664e-09
6.45021e-07
-2.08205e-08
-6.60038e-09
6.21231e-07
-7.16823e-09
5.90091e-07
-2.51752e-08
2.14945e-08
-1.4381e-08
5.79973e-07
-2.57844e-08
1.65895e-08
-1.30685e-08
6.11928e-07
1.12802e-08
-1.19933e-08
6.36323e-07
5.70331e-09
-1.12792e-08
6.52784e-07
-6.90849e-13
-1.0915e-08
6.61082e-07
-5.70363e-09
-1.0915e-08
6.61081e-07
-1.12798e-08
-1.12799e-08
6.52784e-07
-1.65903e-08
-1.1994e-08
6.36323e-07
-2.14957e-08
-1.307e-08
6.11928e-07
-1.43805e-08
5.79973e-07
-2.5785e-08
2.29786e-08
-2.15431e-08
5.59802e-07
-2.72443e-08
1.76472e-08
-1.91228e-08
5.93426e-07
1.1994e-08
-1.7648e-08
6.19047e-07
6.05664e-09
-1.65893e-08
6.36322e-07
-8.44795e-13
-1.60662e-08
6.45021e-07
-6.0575e-09
-1.6066e-08
6.45021e-07
-1.19944e-08
-1.65894e-08
6.36323e-07
-1.76476e-08
-1.76474e-08
6.19047e-07
-2.29784e-08
-1.91236e-08
5.93426e-07
-2.15435e-08
5.59803e-07
-2.72455e-08
2.4824e-08
-2.95572e-08
5.29878e-07
-2.81216e-08
1.91238e-08
-2.48233e-08
5.65988e-07
1.30696e-08
-2.29791e-08
5.93426e-07
6.60088e-09
-2.14952e-08
6.11929e-07
-1.60648e-13
-2.08201e-08
6.21232e-07
-6.60144e-09
-2.08194e-08
6.21232e-07
-1.30706e-08
-2.14946e-08
6.11928e-07
-1.91242e-08
-2.29782e-08
5.93426e-07
-2.48239e-08
-2.48233e-08
5.65989e-07
-2.95568e-08
5.29877e-07
-2.8123e-08
2.95576e-08
4.90504e-07
-3.51321e-08
-3.51316e-08
2.15436e-08
5.29878e-07
-2.81231e-08
1.43811e-08
5.59802e-07
-2.72444e-08
7.1678e-09
5.79973e-07
-2.5784e-08
2.12403e-13
5.90092e-07
-2.51749e-08
-7.16885e-09
5.90092e-07
-2.51752e-08
-1.43819e-08
5.79973e-07
-2.57842e-08
-2.15443e-08
5.59802e-07
-2.72437e-08
-2.9558e-08
5.29878e-07
-2.8122e-08
4.90503e-07
-3.51314e-08
-3.51318e-08
3.39708e-08
3.3971e-08
5.02224e-07
-3.98313e-08
-3.98309e-08
2.5212e-08
2.89033e-08
5.42148e-07
-3.2415e-08
1.70239e-08
2.71408e-08
5.72477e-07
-3.16286e-08
8.50887e-09
2.53665e-08
5.92895e-07
-2.97735e-08
1.67404e-13
2.46648e-08
6.03134e-07
-2.91978e-08
-8.50867e-09
2.46645e-08
6.03133e-07
-2.91981e-08
-1.70239e-08
2.53667e-08
5.92895e-07
-2.97742e-08
-2.52121e-08
2.71417e-08
5.72478e-07
-3.1628e-08
-3.39712e-08
2.89037e-08
5.42149e-07
-3.24158e-08
3.39708e-08
5.02224e-07
-3.98319e-08
-3.9831e-08
2.89032e-08
2.52123e-08
5.42149e-07
-3.24151e-08
2.25339e-08
2.25355e-08
5.78726e-07
1.55758e-08
2.10759e-08
6.06451e-07
7.89963e-09
1.98463e-08
6.25126e-07
-3.57281e-14
1.92964e-08
6.345e-07
-7.89877e-09
1.92967e-08
6.34499e-07
-1.5576e-08
1.98464e-08
6.25125e-07
-2.25342e-08
2.10757e-08
6.0645e-07
-2.89021e-08
2.25352e-08
5.78726e-07
2.52115e-08
5.42149e-07
-3.24151e-08
2.71421e-08
1.70239e-08
5.72477e-07
-3.16292e-08
2.1076e-08
1.55762e-08
6.06451e-07
1.44634e-08
1.44639e-08
6.32272e-07
7.32804e-09
1.36415e-08
6.49664e-07
-3.79084e-13
1.32382e-08
6.58407e-07
-7.32763e-09
1.32384e-08
6.58407e-07
-1.44636e-08
1.36415e-08
6.49663e-07
-2.10762e-08
1.44632e-08
6.32272e-07
-2.71415e-08
1.55765e-08
6.0645e-07
1.70234e-08
5.72477e-07
-3.16294e-08
2.53664e-08
8.50823e-09
5.92895e-07
-2.97741e-08
1.98468e-08
7.89768e-09
6.25126e-07
1.36416e-08
7.32757e-09
6.49663e-07
6.93444e-09
6.93458e-09
6.662e-07
1.7081e-13
6.7307e-09
6.74523e-07
-6.93402e-09
6.73037e-09
6.74524e-07
-1.36414e-08
6.93357e-09
6.662e-07
-1.98465e-08
7.32773e-09
6.49663e-07
-2.53664e-08
7.89842e-09
6.25126e-07
8.50811e-09
5.92895e-07
-2.97747e-08
2.46644e-08
-8.29671e-13
6.03134e-07
-2.91982e-08
1.92965e-08
-1.01568e-12
6.34499e-07
1.3239e-08
-1.05684e-12
6.58407e-07
6.73094e-09
-6.98448e-13
6.74524e-07
7.71952e-13
-3.90434e-13
6.82639e-07
-6.73124e-09
-3.83127e-13
6.8264e-07
-1.32386e-08
6.18859e-13
6.74523e-07
-1.92966e-08
9.11783e-14
6.58407e-07
-2.46645e-08
-2.25822e-13
6.345e-07
-5.93903e-13
6.03133e-07
-2.91985e-08
2.46646e-08
-8.50939e-09
6.03133e-07
-2.91982e-08
1.92966e-08
-7.90037e-09
6.34499e-07
1.32392e-08
-7.32821e-09
6.58406e-07
6.73129e-09
-6.93483e-09
6.74524e-07
2.4994e-13
-6.73189e-09
6.8264e-07
-6.7314e-09
-6.73071e-09
6.8264e-07
-1.32392e-08
-6.93453e-09
6.74523e-07
-1.92961e-08
-7.32839e-09
6.58407e-07
-2.46645e-08
-7.89895e-09
6.34499e-07
-8.50916e-09
6.03134e-07
-2.91987e-08
2.53672e-08
-1.70248e-08
5.92895e-07
-2.97744e-08
1.98465e-08
-1.55769e-08
6.25125e-07
1.36419e-08
-1.44636e-08
6.49664e-07
6.93451e-09
-1.36423e-08
6.66199e-07
8.24333e-13
-1.32395e-08
6.74524e-07
-6.93408e-09
-1.32398e-08
6.74524e-07
-1.36418e-08
-1.36424e-08
6.662e-07
-1.98459e-08
-1.44638e-08
6.49663e-07
-2.53673e-08
-1.55759e-08
6.25125e-07
-1.70247e-08
5.92895e-07
-2.97741e-08
2.71425e-08
-2.52125e-08
5.72477e-07
-3.16291e-08
2.10767e-08
-2.25357e-08
6.0645e-07
1.44643e-08
-2.10764e-08
6.32273e-07
7.32837e-09
-1.98469e-08
6.49663e-07
1.32548e-13
-1.92966e-08
6.58407e-07
-7.32796e-09
-1.92973e-08
6.58407e-07
-1.44631e-08
-1.98471e-08
6.49664e-07
-2.10754e-08
-2.10769e-08
6.32272e-07
-2.71418e-08
-2.25349e-08
6.06451e-07
-2.52134e-08
5.72477e-07
-3.16288e-08
2.89035e-08
-3.39716e-08
5.42149e-07
-3.24157e-08
2.25346e-08
-2.89037e-08
5.78725e-07
1.55767e-08
-2.7142e-08
6.0645e-07
7.89952e-09
-2.53674e-08
6.25126e-07
3.16892e-13
-2.46651e-08
6.345e-07
-7.89924e-09
-2.46648e-08
6.345e-07
-1.55757e-08
-2.53668e-08
6.25126e-07
-2.2534e-08
-2.71432e-08
6.0645e-07
-2.89035e-08
-2.89038e-08
5.78726e-07
-3.39717e-08
5.42148e-07
-3.24146e-08
3.39716e-08
5.02224e-07
-3.98313e-08
-3.98329e-08
2.5212e-08
5.42149e-07
-3.2416e-08
1.70239e-08
5.72477e-07
-3.16295e-08
8.50949e-09
5.92895e-07
-2.97747e-08
5.61396e-13
6.03133e-07
-2.91985e-08
-8.5084e-09
6.03134e-07
-2.9198e-08
-1.70242e-08
5.92895e-07
-2.97744e-08
-2.5212e-08
5.72477e-07
-3.16293e-08
-3.3971e-08
5.42149e-07
-3.24158e-08
5.02224e-07
-3.98321e-08
-3.9832e-08
3.38401e-08
3.38397e-08
5.1373e-07
-3.95921e-08
-3.95933e-08
2.55294e-08
2.94144e-08
5.54343e-07
-3.32989e-08
1.73369e-08
2.8025e-08
5.85182e-07
-3.25373e-08
8.6915e-09
2.63894e-08
6.05912e-07
-3.07626e-08
-3.25975e-13
2.58164e-08
6.16316e-07
-3.03057e-08
-8.69144e-09
2.58164e-08
6.16315e-07
-3.03062e-08
-1.73363e-08
2.63898e-08
6.05912e-07
-3.07626e-08
-2.55286e-08
2.80263e-08
5.85182e-07
-3.25374e-08
-3.38389e-08
2.94146e-08
5.54343e-07
-3.32995e-08
3.38411e-08
5.1373e-07
-3.95919e-08
-3.95939e-08
2.9414e-08
2.55288e-08
5.54343e-07
-3.32981e-08
2.30225e-08
2.30219e-08
5.91511e-07
1.59523e-08
2.18698e-08
6.19677e-07
8.10619e-09
2.07329e-08
6.38628e-07
-1.94377e-13
2.02866e-08
6.48136e-07
-8.10568e-09
2.02863e-08
6.48135e-07
-1.59517e-08
2.07335e-08
6.38627e-07
-2.30226e-08
2.18704e-08
6.19676e-07
-2.94148e-08
2.30228e-08
5.91511e-07
2.55306e-08
5.54343e-07
-3.32982e-08
2.80247e-08
1.73362e-08
5.85182e-07
-3.25366e-08
2.18694e-08
1.59513e-08
6.19676e-07
1.50699e-08
1.50699e-08
6.45872e-07
7.6476e-09
1.43174e-08
6.63502e-07
7.16506e-13
1.39803e-08
6.72361e-07
-7.64612e-09
1.398e-08
6.7236e-07
-1.5069e-08
1.43176e-08
6.63502e-07
-2.18689e-08
1.50701e-08
6.45872e-07
-2.80252e-08
1.59519e-08
6.19677e-07
1.73362e-08
5.85182e-07
-3.25367e-08
2.63895e-08
8.69273e-09
6.05912e-07
-3.0762e-08
2.07329e-08
8.10646e-09
6.38628e-07
1.4317e-08
7.64647e-09
6.63502e-07
7.29227e-09
7.29164e-09
6.80251e-07
-2.47606e-13
7.12078e-09
6.88674e-07
-7.29128e-09
7.12176e-09
6.88674e-07
-1.43163e-08
7.29226e-09
6.80251e-07
-2.07327e-08
7.64696e-09
6.63502e-07
-2.63899e-08
8.10648e-09
6.38628e-07
8.69235e-09
6.05912e-07
-3.07623e-08
2.58162e-08
7.9188e-14
6.16315e-07
-3.03053e-08
2.02864e-08
1.06911e-12
6.48136e-07
1.39801e-08
3.52314e-13
6.7236e-07
7.1213e-09
2.23909e-13
6.88674e-07
4.68442e-13
-3.9938e-13
6.96881e-07
-7.12077e-09
9.37981e-13
6.96882e-07
-1.39792e-08
1.68533e-13
6.88673e-07
-2.02859e-08
-4.24362e-13
6.72359e-07
-2.58156e-08
-8.02146e-15
6.48137e-07
9.90786e-14
6.16315e-07
-3.03059e-08
2.58161e-08
-8.69192e-09
6.16315e-07
-3.0305e-08
2.02868e-08
-8.10566e-09
6.48136e-07
1.39802e-08
-7.64623e-09
6.7236e-07
7.12065e-09
-7.29146e-09
6.88674e-07
-6.57389e-13
-7.12125e-09
6.96882e-07
-7.12119e-09
-7.12043e-09
6.96882e-07
-1.39793e-08
-7.29113e-09
6.88673e-07
-2.02854e-08
-7.64609e-09
6.72359e-07
-2.58161e-08
-8.10635e-09
6.48135e-07
-8.69191e-09
6.16315e-07
-3.03059e-08
2.63897e-08
-1.73358e-08
6.05913e-07
-3.07613e-08
2.07327e-08
-1.59513e-08
6.38628e-07
1.4317e-08
-1.50692e-08
6.63502e-07
7.29196e-09
-1.43166e-08
6.8025e-07
-1.80786e-13
-1.39799e-08
6.88674e-07
-7.29084e-09
-1.39792e-08
6.88674e-07
-1.43163e-08
-1.43172e-08
6.80251e-07
-2.07329e-08
-1.50692e-08
6.63502e-07
-2.63894e-08
-1.59516e-08
6.38627e-07
-1.73362e-08
6.05912e-07
-3.0762e-08
2.80246e-08
-2.55291e-08
5.85182e-07
-3.25365e-08
2.18691e-08
-2.3022e-08
6.19677e-07
1.50697e-08
-2.18695e-08
6.45872e-07
7.64661e-09
-2.07327e-08
6.63502e-07
3.25761e-13
-2.02857e-08
6.72359e-07
-7.64594e-09
-2.02858e-08
6.7236e-07
-1.50691e-08
-2.07332e-08
6.63503e-07
-2.18693e-08
-2.18691e-08
6.45872e-07
-2.8025e-08
-2.30221e-08
6.19678e-07
-2.5529e-08
5.85182e-07
-3.2537e-08
2.94143e-08
-3.38399e-08
5.54344e-07
-3.32984e-08
2.30224e-08
-2.94149e-08
5.9151e-07
1.59521e-08
-2.80254e-08
6.19676e-07
8.10639e-09
-2.63896e-08
6.38627e-07
3.61148e-13
-2.58163e-08
6.48136e-07
-8.10589e-09
-2.58161e-08
6.48136e-07
-1.59514e-08
-2.63894e-08
6.38627e-07
-2.30224e-08
-2.80249e-08
6.19676e-07
-2.94146e-08
-2.94147e-08
5.9151e-07
-3.38396e-08
5.54343e-07
-3.32985e-08
3.38397e-08
5.1373e-07
-3.95924e-08
-3.95933e-08
2.55297e-08
5.54344e-07
-3.32996e-08
1.73368e-08
5.85182e-07
-3.25366e-08
8.69151e-09
6.05912e-07
-3.07626e-08
2.63346e-14
6.16315e-07
-3.0306e-08
-8.69161e-09
6.16315e-07
-3.03053e-08
-1.73362e-08
6.05912e-07
-3.0762e-08
-2.55297e-08
5.85182e-07
-3.25368e-08
-3.38406e-08
5.54343e-07
-3.32987e-08
5.1373e-07
-3.95924e-08
-3.95941e-08
3.09624e-08
3.09633e-08
5.24226e-07
-3.62111e-08
-3.62107e-08
2.37693e-08
2.76446e-08
5.65675e-07
-3.17835e-08
1.62131e-08
2.66601e-08
5.97106e-07
-3.10291e-08
8.16098e-09
2.53541e-08
6.18197e-07
-2.95858e-08
-2.52335e-13
2.49419e-08
6.28791e-07
-2.92547e-08
-8.16159e-09
2.49417e-08
6.28789e-07
-2.92545e-08
-1.62143e-08
2.53541e-08
6.18197e-07
-2.95866e-08
-2.37697e-08
2.6661e-08
5.97106e-07
-3.10287e-08
-3.0964e-08
2.76449e-08
5.65676e-07
-3.17842e-08
3.09628e-08
5.24226e-07
-3.62126e-08
-3.62101e-08
2.76449e-08
2.37699e-08
5.65676e-07
-3.17849e-08
2.16492e-08
2.16497e-08
6.03502e-07
1.49714e-08
2.08341e-08
6.32182e-07
7.61319e-09
1.98875e-08
6.51453e-07
-3.40527e-13
1.95671e-08
6.61124e-07
-7.61362e-09
1.95664e-08
6.61124e-07
-1.49709e-08
1.98886e-08
6.51451e-07
-2.16497e-08
2.08341e-08
6.32182e-07
-2.76449e-08
2.16495e-08
6.03502e-07
2.377e-08
5.65676e-07
-3.17836e-08
2.6661e-08
1.62134e-08
5.97106e-07
-3.10301e-08
2.08339e-08
1.49711e-08
6.32182e-07
1.43624e-08
1.4363e-08
6.58816e-07
7.28851e-09
1.37358e-08
6.76728e-07
-2.89157e-15
1.34891e-08
6.85727e-07
-7.28945e-09
1.34883e-08
6.85727e-07
-1.43631e-08
1.37356e-08
6.76727e-07
-2.08343e-08
1.43624e-08
6.58816e-07
-2.66612e-08
1.49716e-08
6.32182e-07
1.6214e-08
5.97106e-07
-3.1029e-08
2.53542e-08
8.16167e-09
6.18196e-07
-2.9587e-08
1.98879e-08
7.61293e-09
6.51452e-07
1.3736e-08
7.28947e-09
6.76727e-07
6.99311e-09
6.99371e-09
6.93737e-07
7.0327e-13
6.86843e-09
7.02288e-07
-6.99226e-09
6.86735e-09
7.02288e-07
-1.37363e-08
6.99269e-09
6.93737e-07
-1.98891e-08
7.28884e-09
6.76728e-07
-2.53543e-08
7.61277e-09
6.51452e-07
8.16075e-09
6.18197e-07
-2.95864e-08
2.49419e-08
6.49891e-13
6.2879e-07
-2.92547e-08
1.95664e-08
2.83196e-13
6.61123e-07
1.34891e-08
-4.05632e-13
6.85727e-07
6.86815e-09
-2.21277e-13
7.02288e-07
4.80409e-13
2.98455e-13
7.10618e-07
-6.86834e-09
-1.58269e-14
7.10618e-07
-1.34898e-08
-2.72475e-13
7.02288e-07
-1.95677e-08
2.67143e-13
6.85727e-07
-2.49416e-08
1.69893e-13
6.61125e-07
-5.42517e-13
6.2879e-07
-2.92543e-08
2.49421e-08
-8.16093e-09
6.2879e-07
-2.92544e-08
1.95672e-08
-7.61294e-09
6.61124e-07
1.3489e-08
-7.28895e-09
6.85727e-07
6.86671e-09
-6.99279e-09
7.02289e-07
-6.49692e-13
-6.86816e-09
7.10619e-07
-6.86829e-09
-6.86777e-09
7.10619e-07
-1.34896e-08
-6.99319e-09
7.02288e-07
-1.95669e-08
-7.28963e-09
6.85727e-07
-2.49421e-08
-7.6133e-09
6.61123e-07
-8.16182e-09
6.2879e-07
-2.92551e-08
2.53535e-08
-1.62133e-08
6.18197e-07
-2.95868e-08
1.98872e-08
-1.49707e-08
6.51452e-07
1.37361e-08
-1.43628e-08
6.76727e-07
6.99283e-09
-1.37362e-08
6.93736e-07
-3.69789e-13
-1.34897e-08
7.02289e-07
-6.99299e-09
-1.34895e-08
7.02289e-07
-1.37363e-08
-1.37364e-08
6.93737e-07
-1.9888e-08
-1.43627e-08
6.76727e-07
-2.53548e-08
-1.49708e-08
6.51452e-07
-1.62132e-08
6.18197e-07
-2.95868e-08
2.66606e-08
-2.37696e-08
5.97106e-07
-3.10293e-08
2.0834e-08
-2.165e-08
6.32182e-07
1.43622e-08
-2.08344e-08
6.58816e-07
7.28884e-09
-1.98884e-08
6.76728e-07
-5.0466e-13
-1.95669e-08
6.85726e-07
-7.28999e-09
-1.95669e-08
6.85726e-07
-1.43628e-08
-1.9888e-08
6.76728e-07
-2.08345e-08
-2.08349e-08
6.58816e-07
-2.66607e-08
-2.16498e-08
6.32182e-07
-2.37696e-08
5.97106e-07
-3.10286e-08
2.76447e-08
-3.09639e-08
5.65676e-07
-3.17832e-08
2.165e-08
-2.76453e-08
6.03502e-07
1.49703e-08
-2.66611e-08
6.32181e-07
7.61284e-09
-2.53541e-08
6.51452e-07
1.52428e-13
-2.49415e-08
6.61124e-07
-7.61318e-09
-2.49409e-08
6.61124e-07
-1.4972e-08
-2.53543e-08
6.51452e-07
-2.16499e-08
-2.66611e-08
6.32181e-07
-2.76452e-08
-2.76446e-08
6.03502e-07
-3.0963e-08
5.65676e-07
-3.17835e-08
3.09633e-08
5.24226e-07
-3.62117e-08
-3.62108e-08
2.3769e-08
5.65676e-07
-3.17836e-08
1.62137e-08
5.97106e-07
-3.10291e-08
8.16209e-09
6.18197e-07
-2.95869e-08
3.36211e-13
6.28789e-07
-2.9255e-08
-8.161e-09
6.28789e-07
-2.92537e-08
-1.62135e-08
6.18197e-07
-2.95865e-08
-2.37693e-08
5.97106e-07
-3.103e-08
-3.09635e-08
5.65675e-07
-3.17838e-08
5.24226e-07
-3.62109e-08
-3.6211e-08
2.70823e-08
2.70816e-08
5.33471e-07
-3.17039e-08
-3.17038e-08
2.11206e-08
2.50087e-08
5.75847e-07
-2.92181e-08
1.44641e-08
2.44707e-08
6.07893e-07
-2.86008e-08
7.31468e-09
2.36183e-08
6.29371e-07
-2.76437e-08
2.98935e-13
2.33887e-08
6.40168e-07
-2.7451e-08
-7.31468e-09
2.33885e-08
6.40167e-07
-2.7451e-08
-1.44644e-08
2.36191e-08
6.29371e-07
-2.76436e-08
-2.11206e-08
2.44713e-08
6.07893e-07
-2.8601e-08
-2.70822e-08
2.50085e-08
5.75847e-07
-2.92192e-08
2.70822e-08
5.3347e-07
-3.17048e-08
-3.1704e-08
2.50088e-08
2.11208e-08
5.75847e-07
-2.92189e-08
1.95714e-08
1.95712e-08
6.14377e-07
1.34878e-08
1.91345e-08
6.43601e-07
6.86187e-09
1.84742e-08
6.63223e-07
-1.60775e-13
1.82953e-08
6.73078e-07
-6.86192e-09
1.82943e-08
6.73079e-07
-1.34877e-08
1.84743e-08
6.63222e-07
-1.95715e-08
1.9135e-08
6.43602e-07
-2.50088e-08
1.95709e-08
6.14377e-07
2.11205e-08
5.75847e-07
-2.92179e-08
2.44714e-08
1.44634e-08
6.07892e-07
-2.86014e-08
1.91348e-08
1.34872e-08
6.43602e-07
1.31826e-08
1.31824e-08
6.70721e-07
6.69205e-09
1.27405e-08
6.88952e-07
1.67074e-13
1.26003e-08
6.98114e-07
-6.69189e-09
1.26004e-08
6.98114e-07
-1.31821e-08
1.27396e-08
6.88951e-07
-1.91358e-08
1.31819e-08
6.70722e-07
-2.44719e-08
1.34877e-08
6.43602e-07
1.44647e-08
6.07892e-07
-2.86018e-08
2.36193e-08
7.31454e-09
6.29371e-07
-2.76442e-08
1.84736e-08
6.86145e-09
6.63223e-07
1.27404e-08
6.69147e-09
6.88951e-07
6.48011e-09
6.47882e-09
7.06259e-07
5.46122e-13
6.40744e-09
7.1496e-07
-6.47965e-09
6.40779e-09
7.1496e-07
-1.27403e-08
6.47812e-09
7.06259e-07
-1.84745e-08
6.6913e-09
6.88952e-07
-2.36188e-08
6.86177e-09
6.63223e-07
7.31474e-09
6.29372e-07
-2.76441e-08
2.33885e-08
-4.99465e-13
6.40167e-07
-2.74509e-08
1.82952e-08
-2.12346e-13
6.73078e-07
1.26006e-08
1.05854e-14
6.98114e-07
6.40776e-09
-7.52061e-13
7.14961e-07
-6.26902e-14
-6.70194e-13
7.23433e-07
-6.40774e-09
9.13365e-13
7.23433e-07
-1.26008e-08
-1.2076e-13
7.1496e-07
-1.82959e-08
1.99433e-13
6.98114e-07
-2.33888e-08
6.72217e-13
6.73079e-07
-8.61523e-14
6.40167e-07
-2.74507e-08
2.33886e-08
-7.31514e-09
6.40168e-07
-2.74507e-08
1.82958e-08
-6.86273e-09
6.73078e-07
1.25999e-08
-6.69215e-09
6.98114e-07
6.40681e-09
-6.4794e-09
7.14961e-07
-7.14987e-13
-6.40857e-09
7.23434e-07
-6.40803e-09
-6.40729e-09
7.23434e-07
-1.26004e-08
-6.47962e-09
7.1496e-07
-1.82949e-08
-6.69195e-09
6.98114e-07
-2.33884e-08
-6.86132e-09
6.73078e-07
-7.31517e-09
6.40167e-07
-2.74509e-08
2.36188e-08
-1.4464e-08
6.29371e-07
-2.76441e-08
1.84743e-08
-1.34875e-08
6.63223e-07
1.27404e-08
-1.31826e-08
6.88951e-07
6.47962e-09
-1.27408e-08
7.06259e-07
-1.09423e-13
-1.26011e-08
7.14961e-07
-6.47988e-09
-1.26005e-08
7.14961e-07
-1.27397e-08
-1.27401e-08
7.06258e-07
-1.84737e-08
-1.31821e-08
6.88951e-07
-2.3619e-08
-1.34876e-08
6.63223e-07
-1.44636e-08
6.29371e-07
-2.76437e-08
2.44707e-08
-2.11208e-08
6.07892e-07
-2.86016e-08
1.91353e-08
-1.95717e-08
6.43602e-07
1.31831e-08
-1.91358e-08
6.70721e-07
6.69257e-09
-1.84741e-08
6.88952e-07
-6.79085e-13
-1.82959e-08
6.98113e-07
-6.69211e-09
-1.82955e-08
6.98114e-07
-1.31815e-08
-1.84734e-08
6.88951e-07
-1.91343e-08
-1.91356e-08
6.70721e-07
-2.44705e-08
-1.95716e-08
6.43602e-07
-2.11194e-08
6.07892e-07
-2.86004e-08
2.50094e-08
-2.70827e-08
5.75847e-07
-2.9218e-08
1.95728e-08
-2.50097e-08
6.14377e-07
1.34885e-08
-2.4472e-08
6.43602e-07
6.86126e-09
-2.36187e-08
6.63223e-07
2.46239e-13
-2.33882e-08
6.73079e-07
-6.86144e-09
-2.33886e-08
6.73079e-07
-1.34877e-08
-2.36189e-08
6.63223e-07
-1.9571e-08
-2.44717e-08
6.43602e-07
-2.50088e-08
-2.50093e-08
6.14377e-07
-2.7082e-08
5.75847e-07
-2.92179e-08
2.7083e-08
5.3347e-07
-3.17048e-08
-3.17046e-08
2.11215e-08
5.75847e-07
-2.92186e-08
1.44645e-08
6.07893e-07
-2.86012e-08
7.31518e-09
6.29372e-07
-2.76443e-08
4.14035e-13
6.40167e-07
-2.74509e-08
-7.3146e-09
6.40167e-07
-2.74507e-08
-1.44636e-08
6.29372e-07
-2.7644e-08
-2.11197e-08
6.07893e-07
-2.86014e-08
-2.70826e-08
5.75847e-07
-2.92177e-08
5.3347e-07
-3.17041e-08
-3.1705e-08
2.31652e-08
2.31653e-08
5.41434e-07
-2.71468e-08
-2.71457e-08
1.82848e-08
2.19793e-08
5.84784e-07
-2.60367e-08
1.25497e-08
2.17278e-08
6.17429e-07
-2.55283e-08
6.36802e-09
2.12455e-08
6.39282e-07
-2.49749e-08
6.98221e-13
2.1149e-08
6.50268e-07
-2.48827e-08
-6.36652e-09
2.11491e-08
6.50269e-07
-2.48829e-08
-1.25495e-08
2.12462e-08
6.39282e-07
-2.49751e-08
-1.82848e-08
2.17279e-08
6.17429e-07
-2.55291e-08
-2.31641e-08
2.19792e-08
5.84784e-07
-2.60373e-08
2.31652e-08
5.41433e-07
-2.71451e-08
-2.71473e-08
2.19793e-08
1.82854e-08
5.84784e-07
-2.60369e-08
1.71628e-08
1.7163e-08
6.2401e-07
1.17708e-08
1.69772e-08
6.53744e-07
5.98428e-09
1.65556e-08
6.737e-07
7.06777e-13
1.64811e-08
6.83731e-07
-5.98339e-09
1.64808e-08
6.83731e-07
-1.17709e-08
1.65551e-08
6.737e-07
-1.71622e-08
1.69765e-08
6.53744e-07
-2.19786e-08
1.71624e-08
6.2401e-07
1.82852e-08
5.84784e-07
-2.60364e-08
2.17282e-08
1.25496e-08
6.17429e-07
-2.55285e-08
1.69783e-08
1.17713e-08
6.53744e-07
1.16742e-08
1.16745e-08
6.81327e-07
5.92523e-09
1.13882e-08
6.99868e-07
2.90937e-13
1.13302e-08
7.0919e-07
-5.9251e-09
1.13302e-08
7.0919e-07
-1.16731e-08
1.13871e-08
6.99868e-07
-1.69767e-08
1.16739e-08
6.81327e-07
-2.17275e-08
1.17712e-08
6.53744e-07
1.25487e-08
6.17428e-07
-2.55275e-08
2.12458e-08
6.36764e-09
6.39282e-07
-2.49747e-08
1.65559e-08
5.98458e-09
6.737e-07
1.13883e-08
5.92621e-09
6.99867e-07
5.78422e-09
5.78293e-09
7.17469e-07
9.90243e-13
5.75267e-09
7.26321e-07
-5.78333e-09
5.75342e-09
7.26322e-07
-1.13878e-08
5.78294e-09
7.17468e-07
-1.65558e-08
5.92577e-09
6.99867e-07
-2.12465e-08
5.98427e-09
6.737e-07
6.36755e-09
6.39282e-07
-2.4974e-08
2.11496e-08
-1.58329e-13
6.50269e-07
-2.48832e-08
1.64807e-08
6.49144e-14
6.83731e-07
1.13304e-08
8.64228e-13
7.0919e-07
5.75348e-09
4.12696e-13
7.26321e-07
1.69678e-13
-1.95195e-13
7.34939e-07
-5.75293e-09
4.3765e-13
7.34939e-07
-1.13303e-08
6.47552e-13
7.26321e-07
-1.64812e-08
1.29031e-12
7.09189e-07
-2.11485e-08
4.38457e-13
6.83731e-07
-8.8228e-14
6.50268e-07
-2.4882e-08
2.11494e-08
-6.36798e-09
6.50268e-07
-2.48825e-08
1.64813e-08
-5.9832e-09
6.83731e-07
1.13294e-08
-5.92411e-09
7.0919e-07
5.75203e-09
-5.78225e-09
7.26321e-07
-7.57229e-14
-5.75294e-09
7.3494e-07
-5.75285e-09
-5.7526e-09
7.3494e-07
-1.13301e-08
-5.78234e-09
7.2632e-07
-1.64809e-08
-5.92455e-09
7.0919e-07
-2.11491e-08
-5.98403e-09
6.83731e-07
-6.36695e-09
6.50268e-07
-2.48832e-08
2.12457e-08
-1.25487e-08
6.39282e-07
-2.49746e-08
1.65555e-08
-1.17697e-08
6.737e-07
1.1388e-08
-1.16737e-08
6.99867e-07
5.78413e-09
-1.13882e-08
7.17469e-07
2.34891e-13
-1.13301e-08
7.26321e-07
-5.78356e-09
-1.13293e-08
7.26321e-07
-1.13878e-08
-1.1388e-08
7.17468e-07
-1.65554e-08
-1.16741e-08
6.99867e-07
-2.12456e-08
-1.17698e-08
6.737e-07
-1.25491e-08
6.39282e-07
-2.49748e-08
2.17279e-08
-1.82838e-08
6.17429e-07
-2.55288e-08
1.69782e-08
-1.71618e-08
6.53744e-07
1.16742e-08
-1.69774e-08
6.81327e-07
5.92565e-09
-1.65545e-08
6.99867e-07
-4.72019e-13
-1.64798e-08
7.09189e-07
-5.92641e-09
-1.64802e-08
7.0919e-07
-1.16735e-08
-1.65551e-08
6.99866e-07
-1.69766e-08
-1.69774e-08
6.81327e-07
-2.17278e-08
-1.71621e-08
6.53744e-07
-1.82842e-08
6.17428e-07
-2.55287e-08
2.19788e-08
-2.31647e-08
5.84784e-07
-2.60366e-08
1.71628e-08
-2.19786e-08
6.24011e-07
1.17705e-08
-2.17279e-08
6.53745e-07
5.98332e-09
-2.12449e-08
6.737e-07
1.1918e-14
-2.11483e-08
6.83732e-07
-5.98412e-09
-2.1148e-08
6.83732e-07
-1.17706e-08
-2.1245e-08
6.73699e-07
-1.71622e-08
-2.17284e-08
6.53744e-07
-2.19789e-08
-2.19786e-08
6.2401e-07
-2.31634e-08
5.84784e-07
-2.60367e-08
2.31646e-08
5.41434e-07
-2.71459e-08
-2.71463e-08
1.82849e-08
5.84785e-07
-2.60365e-08
1.25488e-08
6.17429e-07
-2.55281e-08
6.36709e-09
6.39282e-07
-2.49741e-08
6.95055e-15
6.50268e-07
-2.48825e-08
-6.36706e-09
6.50268e-07
-2.48819e-08
-1.25488e-08
6.39283e-07
-2.49742e-08
-1.82848e-08
6.17428e-07
-2.55282e-08
-2.31644e-08
5.84784e-07
-2.60368e-08
5.41434e-07
-2.71463e-08
-2.71458e-08
2.0065e-08
2.00655e-08
5.48255e-07
-2.34747e-08
-2.34765e-08
1.59896e-08
1.94328e-08
5.92615e-07
-2.31883e-08
1.10014e-08
1.93271e-08
6.25856e-07
-2.27666e-08
5.59722e-09
1.90778e-08
6.48079e-07
-2.24708e-08
-5.35731e-13
1.90572e-08
6.59247e-07
-2.24379e-08
-5.59778e-09
1.90567e-08
6.59247e-07
-2.24386e-08
-1.10025e-08
1.90788e-08
6.48079e-07
-2.24708e-08
-1.59905e-08
1.93275e-08
6.25856e-07
-2.27655e-08
-2.00667e-08
1.9433e-08
5.92617e-07
-2.31885e-08
2.00654e-08
5.48255e-07
-2.3479e-08
-2.3474e-08
1.94326e-08
1.5989e-08
5.92616e-07
-2.31879e-08
1.51606e-08
1.51608e-08
6.32553e-07
1.03612e-08
1.5101e-08
6.6277e-07
5.26311e-09
1.48325e-08
6.83043e-07
-1.08096e-12
1.48126e-08
6.93239e-07
-5.26397e-09
1.48119e-08
6.93239e-07
-1.03617e-08
1.48331e-08
6.83043e-07
-1.51605e-08
1.51016e-08
6.6277e-07
-1.94319e-08
1.51605e-08
6.32553e-07
1.59887e-08
5.92616e-07
-2.3188e-08
1.93279e-08
1.10015e-08
6.25855e-07
-2.27672e-08
1.51006e-08
1.03608e-08
6.6277e-07
1.03687e-08
1.03697e-08
6.9079e-07
5.26361e-09
1.01826e-08
7.09624e-07
-5.54238e-14
1.01697e-08
7.19097e-07
-5.26444e-09
1.01695e-08
7.19097e-07
-1.03702e-08
1.01825e-08
7.09623e-07
-1.51023e-08
1.037e-08
6.90791e-07
-1.93283e-08
1.03617e-08
6.6277e-07
1.10015e-08
6.25855e-07
-2.27676e-08
1.90791e-08
5.59705e-09
6.48079e-07
-2.24709e-08
1.48325e-08
5.26296e-09
6.83044e-07
1.01824e-08
5.26376e-09
7.09623e-07
5.16637e-09
5.16498e-09
7.27503e-07
5.2988e-13
5.15724e-09
7.36499e-07
-5.16539e-09
5.15849e-09
7.36499e-07
-1.01837e-08
5.16515e-09
7.27503e-07
-1.48339e-08