/*--------------------------------*- C++ -*----------------------------------*\
| =========                 |                                                 |
| \\      /  F ield         | OpenFOAM: The Open Source CFD Toolbox           |
|  \\    /   O peration     | Version:  2406                                  |
|   \\  /    A nd           | Website:  www.openfoam.com                      |
|    \\/     M anipulation  |                                                 |
\*---------------------------------------------------------------------------*/
FoamFile
{
    version     2.0;
    format      ascii;
    arch        "LSB;label=32;scalar=64";
    class       volVectorField;
    location    "5";
    object      U;
}
// * * * * * * * * * * * * * * * * * * * * * * * * * * * * * * * * * * * * * //

dimensions      [0 1 -1 0 0 0 0];

internalField   nonuniform List<vector> 
15000
(
(0.000145681 0.000145686 0.00999893)
(0.000108861 0.00013674 0.00999873)
(7.48179e-05 0.000124951 0.00999843)
(4.40838e-05 0.000117897 0.00999786)
(1.46619e-05 0.000113574 0.00999745)
(-1.46647e-05 0.00011357 0.00999745)
(-4.40849e-05 0.0001179 0.00999783)
(-7.48154e-05 0.000124948 0.00999841)
(-0.000108859 0.000136748 0.00999871)
(-0.000145684 0.00014568 0.00999889)
(0.000136752 0.000108856 0.00999875)
(9.68327e-05 9.68345e-05 0.00999742)
(6.66999e-05 8.88411e-05 0.00999592)
(3.90028e-05 8.37078e-05 0.00999441)
(1.27849e-05 8.08798e-05 0.0099936)
(-1.27893e-05 8.08768e-05 0.00999361)
(-3.9002e-05 8.37076e-05 0.00999441)
(-6.6694e-05 8.88399e-05 0.00999588)
(-9.68278e-05 9.68379e-05 0.00999745)
(-0.000136757 0.000108859 0.00999872)
(0.00012495 7.48136e-05 0.00999838)
(8.88505e-05 6.66887e-05 0.00999589)
(6.07126e-05 6.07005e-05 0.00999328)
(3.53882e-05 5.6772e-05 0.00999125)
(1.1556e-05 5.47891e-05 0.0099902)
(-1.1555e-05 5.47912e-05 0.0099902)
(-3.53906e-05 5.67754e-05 0.00999123)
(-6.07048e-05 6.07061e-05 0.00999327)
(-8.88473e-05 6.66932e-05 0.00999591)
(-0.00012495 7.48194e-05 0.0099984)
(0.000117889 4.40822e-05 0.00999786)
(8.37116e-05 3.90013e-05 0.00999442)
(5.67788e-05 3.53908e-05 0.00999124)
(3.29421e-05 3.29297e-05 0.00998909)
(1.07377e-05 3.17127e-05 0.00998813)
(-1.07353e-05 3.17196e-05 0.00998812)
(-3.29359e-05 3.29337e-05 0.00998909)
(-5.67744e-05 3.53888e-05 0.00999124)
(-8.37139e-05 3.90055e-05 0.0099944)
(-0.000117892 4.40884e-05 0.00999785)
(0.000113571 1.46574e-05 0.00999743)
(8.0883e-05 1.27867e-05 0.0099936)
(5.47944e-05 1.15634e-05 0.00999025)
(3.1718e-05 1.07337e-05 0.00998813)
(1.03427e-05 1.03364e-05 0.0099872)
(-1.03368e-05 1.03314e-05 0.00998723)
(-3.17146e-05 1.0733e-05 0.00998814)
(-5.47894e-05 1.15632e-05 0.00999022)
(-8.08794e-05 1.27847e-05 0.0099936)
(-0.000113564 1.46601e-05 0.00999744)
(0.000113561 -1.4664e-05 0.00999744)
(8.08841e-05 -1.27946e-05 0.0099936)
(5.47946e-05 -1.15676e-05 0.00999021)
(3.17235e-05 -1.07395e-05 0.00998813)
(1.0337e-05 -1.03445e-05 0.00998721)
(-1.03412e-05 -1.03509e-05 0.00998722)
(-3.17146e-05 -1.07408e-05 0.00998808)
(-5.47864e-05 -1.15676e-05 0.00999024)
(-8.08801e-05 -1.27909e-05 0.00999359)
(-0.000113564 -1.46571e-05 0.00999744)
(0.000117895 -4.40853e-05 0.00999781)
(8.37164e-05 -3.90052e-05 0.00999441)
(5.67779e-05 -3.53887e-05 0.00999124)
(3.2933e-05 -3.29353e-05 0.00998908)
(1.07393e-05 -3.17159e-05 0.00998813)
(-1.07349e-05 -3.17147e-05 0.00998812)
(-3.29361e-05 -3.29292e-05 0.0099891)
(-5.6769e-05 -3.53924e-05 0.00999121)
(-8.37009e-05 -3.9004e-05 0.00999443)
(-0.000117894 -4.40827e-05 0.00999786)
(0.000124948 -7.48106e-05 0.00999839)
(8.88503e-05 -6.66993e-05 0.0099959)
(6.07119e-05 -6.07084e-05 0.00999329)
(3.53855e-05 -5.67766e-05 0.00999122)
(1.15704e-05 -5.47913e-05 0.00999021)
(-1.15616e-05 -5.47911e-05 0.00999023)
(-3.53847e-05 -5.67759e-05 0.00999123)
(-6.07104e-05 -6.07011e-05 0.00999328)
(-8.88436e-05 -6.66963e-05 0.00999591)
(-0.000124946 -7.48236e-05 0.00999838)
(0.000136743 -0.000108857 0.00999871)
(9.68281e-05 -9.68381e-05 0.00999739)
(6.67053e-05 -8.88466e-05 0.0099959)
(3.90024e-05 -8.37078e-05 0.00999441)
(1.27875e-05 -8.08785e-05 0.00999358)
(-1.27892e-05 -8.0883e-05 0.00999359)
(-3.89973e-05 -8.37069e-05 0.0099944)
(-6.6696e-05 -8.88453e-05 0.00999591)
(-9.68283e-05 -9.68375e-05 0.00999742)
(-0.000136749 -0.000108856 0.00999869)
(0.000145687 -0.000145678 0.00999889)
(0.000108854 -0.000136738 0.00999871)
(7.48176e-05 -0.000124947 0.00999841)
(4.40888e-05 -0.000117899 0.00999782)
(1.46636e-05 -0.000113567 0.00999746)
(-1.46582e-05 -0.000113564 0.00999744)
(-4.40845e-05 -0.000117897 0.00999787)
(-7.48121e-05 -0.000124954 0.00999838)
(-0.000108852 -0.000136744 0.00999872)
(-0.000145685 -0.000145682 0.00999889)
(0.000198467 0.000198468 0.0103216)
(0.000143741 0.000169739 0.0102908)
(9.96279e-05 0.000166294 0.0102684)
(5.92064e-05 0.000160107 0.0102546)
(1.95656e-05 0.000157481 0.0102474)
(-1.95641e-05 0.000157482 0.0102474)
(-5.9202e-05 0.000160106 0.0102545)
(-9.9623e-05 0.000166296 0.0102684)
(-0.000143738 0.000169731 0.0102908)
(-0.000198461 0.000198471 0.0103216)
(0.000169725 0.000143745 0.0102908)
(0.000130531 0.000130523 0.0102605)
(9.50279e-05 0.000125892 0.0102395)
(5.67121e-05 0.000122161 0.0102265)
(1.89806e-05 0.00012057 0.0102202)
(-1.8983e-05 0.000120569 0.0102201)
(-5.67052e-05 0.000122164 0.0102265)
(-9.50286e-05 0.000125893 0.0102395)
(-0.00013053 0.000130522 0.0102605)
(-0.000169724 0.000143738 0.0102908)
(0.000166297 9.96255e-05 0.0102684)
(0.000125884 9.50351e-05 0.0102395)
(9.05966e-05 9.06011e-05 0.0102202)
(5.39149e-05 8.75562e-05 0.0102079)
(1.80057e-05 8.59465e-05 0.0102019)
(-1.80007e-05 8.59488e-05 0.0102019)
(-5.39117e-05 8.75538e-05 0.0102079)
(-9.05969e-05 9.05962e-05 0.0102202)
(-0.000125888 9.50276e-05 0.0102396)
(-0.000166293 9.96261e-05 0.0102684)
(0.000160105 5.92077e-05 0.0102545)
(0.000122156 5.67111e-05 0.0102265)
(8.75538e-05 5.39164e-05 0.0102079)
(5.21015e-05 5.21053e-05 0.0101959)
(1.73662e-05 5.11571e-05 0.0101901)
(-1.73667e-05 5.11546e-05 0.0101901)
(-5.21065e-05 5.21037e-05 0.0101959)
(-8.75546e-05 5.39158e-05 0.0102079)
(-0.000122149 5.67048e-05 0.0102265)
(-0.000160106 5.92001e-05 0.0102545)
(0.000157479 1.95746e-05 0.0102474)
(0.000120567 1.8991e-05 0.0102202)
(8.5941e-05 1.80055e-05 0.0102019)
(5.11506e-05 1.73728e-05 0.0101901)
(1.70367e-05 1.70336e-05 0.0101843)
(-1.70322e-05 1.70441e-05 0.0101843)
(-5.1159e-05 1.73725e-05 0.0101901)
(-8.59416e-05 1.80017e-05 0.0102019)
(-0.000120573 1.89839e-05 0.0102202)
(-0.000157473 1.95715e-05 0.0102474)
(0.000157475 -1.9563e-05 0.0102474)
(0.000120575 -1.8973e-05 0.0102202)
(8.59377e-05 -1.79928e-05 0.0102019)
(5.11567e-05 -1.73642e-05 0.0101901)
(1.70279e-05 -1.70273e-05 0.0101843)
(-1.70317e-05 -1.70207e-05 0.0101843)
(-5.11645e-05 -1.73639e-05 0.0101901)
(-8.59363e-05 -1.79911e-05 0.0102019)
(-0.000120569 -1.89807e-05 0.0102202)
(-0.000157475 -1.95665e-05 0.0102474)
(0.000160101 -5.91933e-05 0.0102545)
(0.000122148 -5.66968e-05 0.0102265)
(8.75489e-05 -5.3909e-05 0.0102079)
(5.21091e-05 -5.2104e-05 0.0101959)
(1.73663e-05 -5.11577e-05 0.0101901)
(-1.7372e-05 -5.11554e-05 0.0101901)
(-5.2103e-05 -5.21064e-05 0.0101959)
(-8.75551e-05 -5.39114e-05 0.0102079)
(-0.000122155 -5.67003e-05 0.0102265)
(-0.000160103 -5.91988e-05 0.0102546)
(0.00016629 -9.96189e-05 0.0102684)
(0.000125871 -9.50241e-05 0.0102395)
(9.05996e-05 -9.05951e-05 0.0102202)
(5.39124e-05 -8.75457e-05 0.0102079)
(1.79923e-05 -8.59347e-05 0.0102019)
(-1.79985e-05 -8.59357e-05 0.0102019)
(-5.39108e-05 -8.75447e-05 0.0102079)
(-9.06019e-05 -9.05887e-05 0.0102202)
(-0.000125881 -9.50284e-05 0.0102395)
(-0.000166296 -9.96217e-05 0.0102684)
(0.000169721 -0.000143734 0.0102908)
(0.000130521 -0.000130513 0.0102605)
(9.50258e-05 -0.000125886 0.0102395)
(5.67047e-05 -0.00012215 0.0102265)
(1.89834e-05 -0.00012057 0.0102202)
(-1.89823e-05 -0.000120566 0.0102202)
(-5.67122e-05 -0.000122155 0.0102265)
(-9.50249e-05 -0.000125889 0.0102396)
(-0.000130535 -0.000130515 0.0102605)
(-0.000169724 -0.000143736 0.0102908)
(0.000198451 -0.000198467 0.0103216)
(0.000143737 -0.000169729 0.0102908)
(9.9629e-05 -0.000166289 0.0102684)
(5.91961e-05 -0.000160101 0.0102546)
(1.95649e-05 -0.000157471 0.0102474)
(-1.95705e-05 -0.000157475 0.0102474)
(-5.92012e-05 -0.000160101 0.0102545)
(-9.9629e-05 -0.000166285 0.0102684)
(-0.000143748 -0.000169728 0.0102908)
(-0.000198459 -0.000198458 0.0103216)
(0.00022219 0.000222189 0.0105612)
(0.000166043 0.000192492 0.0105222)
(0.000116267 0.000193443 0.010493)
(6.97753e-05 0.000186836 0.0104741)
(2.27607e-05 0.000185351 0.010464)
(-2.27635e-05 0.000185353 0.010464)
(-6.97694e-05 0.000186836 0.0104741)
(-0.000116268 0.00019344 0.0104931)
(-0.000166043 0.000192499 0.0105222)
(-0.000222197 0.000222192 0.0105612)
(0.000192492 0.000166045 0.0105222)
(0.000153131 0.000153128 0.0104826)
(0.000111497 0.000149581 0.0104514)
(6.73828e-05 0.000145569 0.0104309)
(2.25586e-05 0.00014438 0.0104206)
(-2.25568e-05 0.000144379 0.0104206)
(-6.73833e-05 0.000145568 0.0104309)
(-0.000111495 0.000149589 0.0104514)
(-0.000153122 0.000153128 0.0104826)
(-0.000192487 0.000166044 0.0105222)
(0.000193443 0.000116264 0.0104931)
(0.000149596 0.000111505 0.0104514)
(0.000108352 0.000108355 0.0104199)
(6.49055e-05 0.000105364 0.0103992)
(2.17277e-05 0.00010396 0.010389)
(-2.17338e-05 0.000103963 0.010389)
(-6.49034e-05 0.000105366 0.0103992)
(-0.00010835 0.000108349 0.0104199)
(-0.000149593 0.000111502 0.0104514)
(-0.000193438 0.000116257 0.010493)
(0.000186831 6.97724e-05 0.010474)
(0.000145581 6.73714e-05 0.0104309)
(0.000105365 6.49021e-05 0.0103992)
(6.31813e-05 6.31764e-05 0.0103786)
(2.11973e-05 6.23231e-05 0.0103687)
(-2.11966e-05 6.23226e-05 0.0103687)
(-6.31775e-05 6.31803e-05 0.0103786)
(-0.000105362 6.49005e-05 0.0103992)
(-0.000145576 6.73815e-05 0.0104309)
(-0.00018683 6.97726e-05 0.010474)
(0.000185355 2.27585e-05 0.010464)
(0.00014438 2.25514e-05 0.0104205)
(0.000103965 2.17302e-05 0.010389)
(6.23285e-05 2.11984e-05 0.0103687)
(2.08763e-05 2.08719e-05 0.0103589)
(-2.08697e-05 2.08682e-05 0.0103589)
(-6.23296e-05 2.11948e-05 0.0103687)
(-0.000103961 2.17383e-05 0.010389)
(-0.00014438 2.25553e-05 0.0104205)
(-0.000185349 2.2757e-05 0.010464)
(0.000185345 -2.27633e-05 0.010464)
(0.000144386 -2.25642e-05 0.0104206)
(0.000103963 -2.17419e-05 0.010389)
(6.23289e-05 -2.12057e-05 0.0103687)
(2.08735e-05 -2.08795e-05 0.0103589)
(-2.08704e-05 -2.0873e-05 0.0103589)
(-6.23362e-05 -2.11956e-05 0.0103687)
(-0.000103956 -2.17386e-05 0.010389)
(-0.000144383 -2.25624e-05 0.0104205)
(-0.000185347 -2.27653e-05 0.010464)
(0.000186849 -6.97799e-05 0.0104741)
(0.000145569 -6.73902e-05 0.0104309)
(0.000105369 -6.48992e-05 0.0103992)
(6.31764e-05 -6.31781e-05 0.0103786)
(2.12013e-05 -6.23344e-05 0.0103687)
(-2.11953e-05 -6.23291e-05 0.0103687)
(-6.31728e-05 -6.318e-05 0.0103786)
(-0.000105366 -6.49036e-05 0.0103992)
(-0.000145573 -6.73811e-05 0.0104309)
(-0.000186844 -6.97801e-05 0.010474)
(0.000193445 -0.000116265 0.010493)
(0.000149595 -0.000111504 0.0104514)
(0.000108357 -0.000108356 0.0104199)
(6.49052e-05 -0.000105371 0.0103992)
(2.17378e-05 -0.000103963 0.010389)
(-2.17361e-05 -0.00010397 0.010389)
(-6.48973e-05 -0.000105372 0.0103992)
(-0.000108354 -0.000108356 0.0104199)
(-0.000149588 -0.000111501 0.0104514)
(-0.000193441 -0.00011627 0.0104931)
(0.000192495 -0.000166053 0.0105222)
(0.000153127 -0.000153133 0.0104826)
(0.0001115 -0.00014959 0.0104514)
(6.73869e-05 -0.000145575 0.0104309)
(2.25586e-05 -0.00014438 0.0104205)
(-2.25518e-05 -0.000144381 0.0104205)
(-6.73843e-05 -0.000145576 0.0104309)
(-0.000111497 -0.000149603 0.0104514)
(-0.000153124 -0.00015313 0.0104826)
(-0.00019249 -0.000166054 0.0105222)
(0.000222206 -0.000222192 0.0105612)
(0.000166041 -0.000192493 0.0105222)
(0.000116266 -0.000193443 0.0104931)
(6.9774e-05 -0.000186836 0.010474)
(2.27658e-05 -0.000185353 0.010464)
(-2.27571e-05 -0.000185351 0.010464)
(-6.97771e-05 -0.000186838 0.0104741)
(-0.000116267 -0.000193451 0.010493)
(-0.000166035 -0.000192497 0.0105222)
(-0.000222201 -0.000222199 0.0105611)
(0.00021735 0.000217341 0.0108078)
(0.000165899 0.000194223 0.010763)
(0.000116784 0.000198761 0.0107313)
(7.05812e-05 0.000193925 0.0107109)
(2.27253e-05 0.00019397 0.0107006)
(-2.27236e-05 0.000193973 0.0107006)
(-7.05792e-05 0.000193922 0.0107109)
(-0.00011678 0.000198765 0.0107313)
(-0.00016589 0.000194227 0.0107631)
(-0.000217335 0.000217356 0.0108078)
(0.000194212 0.000165903 0.0107631)
(0.000155791 0.000155783 0.0107214)
(0.000112879 0.000154733 0.0106901)
(6.8819e-05 0.00015177 0.01067)
(2.28372e-05 0.000151447 0.0106597)
(-2.28361e-05 0.000151447 0.0106597)
(-6.88143e-05 0.000151778 0.0106699)
(-0.000112881 0.000154738 0.01069)
(-0.000155788 0.00015578 0.0107214)
(-0.000194214 0.000165909 0.0107631)
(0.000198758 0.000116774 0.0107313)
(0.000154732 0.000112877 0.0106901)
(0.000112339 0.000112341 0.0106598)
(6.75358e-05 0.000110292 0.01064)
(2.26048e-05 0.000109684 0.01063)
(-2.25959e-05 0.000109678 0.01063)
(-6.75279e-05 0.00011029 0.01064)
(-0.000112335 0.000112345 0.0106598)
(-0.00015473 0.000112885 0.0106901)
(-0.000198762 0.000116778 0.0107313)
(0.000193923 7.05899e-05 0.0107109)
(0.000151775 6.88138e-05 0.0106699)
(0.000110285 6.75317e-05 0.01064)
(6.63745e-05 6.63709e-05 0.0106201)
(2.23041e-05 6.59197e-05 0.0106101)
(-2.23043e-05 6.59251e-05 0.0106101)
(-6.63653e-05 6.63739e-05 0.0106201)
(-0.000110284 6.75342e-05 0.01064)
(-0.000151774 6.88159e-05 0.01067)
(-0.000193927 7.0585e-05 0.0107109)
(0.000193977 2.2721e-05 0.0107006)
(0.000151444 2.28457e-05 0.0106597)
(0.000109683 2.25941e-05 0.01063)
(6.59199e-05 2.23029e-05 0.0106101)
(2.21404e-05 2.21355e-05 0.0106002)
(-2.21306e-05 2.21437e-05 0.0106002)
(-6.59235e-05 2.23103e-05 0.0106101)
(-0.000109678 2.25923e-05 0.0106299)
(-0.000151443 2.28396e-05 0.0106597)
(-0.00019397 2.27187e-05 0.0107006)
(0.000193966 -2.27178e-05 0.0107006)
(0.000151452 -2.28337e-05 0.0106597)
(0.000109681 -2.25897e-05 0.0106299)
(6.59202e-05 -2.23043e-05 0.0106101)
(2.21351e-05 -2.21376e-05 0.0106002)
(-2.21417e-05 -2.21321e-05 0.0106002)
(-6.59174e-05 -2.23069e-05 0.0106101)
(-0.000109679 -2.25919e-05 0.0106299)
(-0.000151443 -2.28426e-05 0.0106597)
(-0.000193968 -2.27174e-05 0.0107006)
(0.000193917 -7.05884e-05 0.0107109)
(0.000151778 -6.8816e-05 0.0106699)
(0.000110283 -6.75326e-05 0.01064)
(6.63742e-05 -6.63657e-05 0.0106201)
(2.23048e-05 -6.59235e-05 0.0106101)
(-2.23028e-05 -6.59188e-05 0.0106101)
(-6.6363e-05 -6.63663e-05 0.0106201)
(-0.000110285 -6.75293e-05 0.01064)
(-0.000151777 -6.88083e-05 0.0106699)
(-0.000193917 -7.05841e-05 0.0107109)
(0.00019876 -0.000116775 0.0107313)
(0.000154724 -0.000112879 0.0106901)
(0.000112341 -0.000112343 0.0106598)
(6.75338e-05 -0.00011029 0.01064)
(2.25999e-05 -0.000109678 0.01063)
(-2.25944e-05 -0.000109673 0.01063)
(-6.75246e-05 -0.000110291 0.01064)
(-0.000112342 -0.000112338 0.0106598)
(-0.000154725 -0.000112882 0.0106901)
(-0.000198763 -0.000116774 0.0107313)
(0.000194211 -0.0001659 0.0107631)
(0.000155788 -0.000155782 0.0107214)
(0.000112881 -0.000154732 0.01069)
(6.88235e-05 -0.000151767 0.0106699)
(2.28393e-05 -0.000151442 0.0106597)
(-2.28347e-05 -0.000151452 0.0106597)
(-6.88147e-05 -0.000151775 0.0106699)
(-0.000112879 -0.000154731 0.0106901)
(-0.000155789 -0.000155782 0.0107214)
(-0.000194211 -0.000165901 0.0107631)
(0.000217338 -0.000217343 0.0108078)
(0.000165905 -0.000194221 0.0107631)
(0.000116782 -0.000198753 0.0107313)
(7.05832e-05 -0.000193926 0.0107109)
(2.27218e-05 -0.000193973 0.0107006)
(-2.27214e-05 -0.000193961 0.0107006)
(-7.05806e-05 -0.000193922 0.0107109)
(-0.000116777 -0.000198756 0.0107312)
(-0.000165909 -0.000194224 0.0107631)
(-0.00021735 -0.000217351 0.0108078)
(0.000195862 0.000195869 0.0110494)
(0.000152537 0.000182316 0.0109993)
(0.000108028 0.000188881 0.010962)
(6.56314e-05 0.000186585 0.0109369)
(2.08974e-05 0.000187835 0.0109242)
(-2.08993e-05 0.000187838 0.0109242)
(-6.56353e-05 0.000186584 0.0109369)
(-0.00010803 0.000188878 0.010962)
(-0.000152542 0.000182317 0.0109993)
(-0.000195874 0.000195869 0.0110494)
(0.000182321 0.00015254 0.0109993)
(0.000146173 0.000146169 0.0109489)
(0.000105177 0.000147286 0.01091)
(6.4399e-05 0.000145598 0.0108841)
(2.11246e-05 0.000146009 0.0108709)
(-2.11274e-05 0.000146005 0.0108709)
(-6.43957e-05 0.000145609 0.0108841)
(-0.000105175 0.000147296 0.01091)
(-0.000146175 0.000146173 0.0109489)
(-0.000182314 0.000152535 0.0109993)
(0.000188884 0.000108027 0.010962)
(0.000147298 0.000105179 0.01091)
(0.000106815 0.00010682 0.0108707)
(6.42701e-05 0.000105737 0.0108446)
(2.14235e-05 0.000105878 0.0108316)
(-2.14277e-05 0.00010587 0.0108316)
(-6.42765e-05 0.000105733 0.0108446)
(-0.000106815 0.000106809 0.0108707)
(-0.000147296 0.000105175 0.0109101)
(-0.000188884 0.000108031 0.0109621)
(0.000186578 6.56323e-05 0.0109369)
(0.000145614 6.43957e-05 0.0108841)
(0.000105731 6.42764e-05 0.0108446)
(6.36555e-05 6.3649e-05 0.0108187)
(2.13559e-05 6.35859e-05 0.0108059)
(-2.13542e-05 6.35812e-05 0.0108059)
(-6.36474e-05 6.36433e-05 0.0108187)
(-0.000105735 6.42774e-05 0.0108446)
(-0.00014562 6.44018e-05 0.0108841)
(-0.000186576 6.56329e-05 0.0109369)
(0.000187838 2.09068e-05 0.0109242)
(0.000146008 2.11241e-05 0.0108709)
(0.000105869 2.14243e-05 0.0108316)
(6.3591e-05 2.136e-05 0.0108059)
(2.13624e-05 2.13622e-05 0.0107933)
(-2.13594e-05 2.13591e-05 0.0107933)
(-6.35851e-05 2.13674e-05 0.0108059)
(-0.000105883 2.14235e-05 0.0108316)
(-0.000146009 2.11214e-05 0.010871)
(-0.000187839 2.08938e-05 0.0109242)
(0.000187837 -2.08993e-05 0.0109242)
(0.00014601 -2.11191e-05 0.010871)
(0.000105879 -2.14251e-05 0.0108316)
(6.35776e-05 -2.13599e-05 0.0108059)
(2.13536e-05 -2.13571e-05 0.0107933)
(-2.13616e-05 -2.13537e-05 0.0107933)
(-6.35892e-05 -2.13708e-05 0.0108059)
(-0.000105878 -2.14244e-05 0.0108316)
(-0.000146009 -2.11278e-05 0.010871)
(-0.000187837 -2.0903e-05 0.0109242)
(0.000186584 -6.56321e-05 0.0109369)
(0.000145597 -6.43983e-05 0.0108841)
(0.000105733 -6.42732e-05 0.0108446)
(6.36529e-05 -6.36478e-05 0.0108187)
(2.13591e-05 -6.35918e-05 0.0108059)
(-2.13623e-05 -6.35874e-05 0.0108059)
(-6.36512e-05 -6.36403e-05 0.0108187)
(-0.000105737 -6.42814e-05 0.0108447)
(-0.000145605 -6.43954e-05 0.0108841)
(-0.000186588 -6.56338e-05 0.0109369)
(0.000188885 -0.000108028 0.010962)
(0.000147287 -0.000105174 0.01091)
(0.000106822 -0.000106821 0.0108707)
(6.4268e-05 -0.000105737 0.0108446)
(2.1431e-05 -0.000105875 0.0108316)
(-2.14359e-05 -0.000105878 0.0108316)
(-6.42766e-05 -0.00010574 0.0108447)
(-0.000106826 -0.000106812 0.0108707)
(-0.00014729 -0.000105179 0.01091)
(-0.000188878 -0.000108028 0.010962)
(0.000182315 -0.000152537 0.0109993)
(0.000146175 -0.000146176 0.0109489)
(0.000105179 -0.00014729 0.01091)
(6.43942e-05 -0.000145603 0.0108841)
(2.11197e-05 -0.000146003 0.010871)
(-2.11185e-05 -0.000146006 0.010871)
(-6.44059e-05 -0.000145607 0.0108841)
(-0.000105181 -0.000147303 0.01091)
(-0.000146174 -0.000146173 0.0109489)
(-0.000182315 -0.000152536 0.0109993)
(0.00019588 -0.000195871 0.0110494)
(0.00015253 -0.000182318 0.0109993)
(0.000108032 -0.00018888 0.010962)
(6.56273e-05 -0.00018659 0.0109369)
(2.09071e-05 -0.000187846 0.0109242)
(-2.0902e-05 -0.000187835 0.0109242)
(-6.56248e-05 -0.000186588 0.0109369)
(-0.000108037 -0.000188879 0.0109621)
(-0.000152534 -0.000182319 0.0109993)
(-0.000195873 -0.000195879 0.0110494)
(0.000169513 0.000169508 0.0112575)
(0.000133738 0.000165831 0.0112111)
(9.53374e-05 0.000173806 0.0111764)
(5.80332e-05 0.000174448 0.0111529)
(1.84162e-05 0.00017669 0.0111414)
(-1.8416e-05 0.0001767 0.0111413)
(-5.80315e-05 0.000174455 0.0111529)
(-9.53391e-05 0.000173809 0.0111764)
(-0.000133736 0.000165833 0.0112111)
(-0.000169512 0.000169529 0.0112575)
(0.000165826 0.000133734 0.0112111)
(0.000131918 0.000131913 0.0111639)
(9.43203e-05 0.000135282 0.0111291)
(5.77735e-05 0.000135349 0.0111059)
(1.8764e-05 0.000136489 0.0110942)
(-1.87675e-05 0.00013648 0.0110942)
(-5.77744e-05 0.000135355 0.0111058)
(-9.43136e-05 0.000135287 0.0111291)
(-0.000131918 0.000131912 0.0111639)
(-0.000165827 0.00013373 0.0112111)
(0.000173812 9.53322e-05 0.0111764)
(0.00013529 9.43173e-05 0.0111291)
(9.79583e-05 9.79598e-05 0.0110943)
(5.89157e-05 9.81251e-05 0.0110712)
(1.95867e-05 9.90074e-05 0.0110596)
(-1.95875e-05 9.90033e-05 0.0110596)
(-5.89103e-05 9.81222e-05 0.0110712)
(-9.79562e-05 9.79599e-05 0.0110944)
(-0.000135294 9.43164e-05 0.0111291)
(-0.000173818 9.53371e-05 0.0111764)
(0.000174458 5.80415e-05 0.0111529)
(0.000135351 5.77718e-05 0.0111059)
(9.81175e-05 5.89125e-05 0.0110712)
(5.89824e-05 5.89785e-05 0.0110481)
(1.97556e-05 5.93156e-05 0.0110364)
(-1.97489e-05 5.93208e-05 0.0110365)
(-5.89792e-05 5.8968e-05 0.0110481)
(-9.81183e-05 5.89112e-05 0.0110713)
(-0.000135357 5.77763e-05 0.0111059)
(-0.000174452 5.80448e-05 0.0111529)
(0.000176699 1.84107e-05 0.0111413)
(0.00013648 1.87697e-05 0.0110942)
(9.90132e-05 1.9584e-05 0.0110596)
(5.93149e-05 1.97429e-05 0.0110365)
(1.99271e-05 1.9923e-05 0.0110248)
(-1.9925e-05 1.99293e-05 0.0110248)
(-5.93149e-05 1.97492e-05 0.0110364)
(-9.90143e-05 1.95846e-05 0.0110596)
(-0.000136488 1.87674e-05 0.0110942)
(-0.000176693 1.84107e-05 0.0111413)
(0.000176691 -1.8412e-05 0.0111414)
(0.000136486 -1.87738e-05 0.0110942)
(9.90091e-05 -1.95853e-05 0.0110596)
(5.93104e-05 -1.97522e-05 0.0110365)
(1.99214e-05 -1.99298e-05 0.0110248)
(-1.99316e-05 -1.99208e-05 0.0110248)
(-5.9314e-05 -1.97576e-05 0.0110365)
(-9.90105e-05 -1.95892e-05 0.0110596)
(-0.000136477 -1.87647e-05 0.0110942)
(-0.000176697 -1.84133e-05 0.0111414)
(0.000174453 -5.80449e-05 0.0111529)
(0.000135353 -5.77764e-05 0.0111058)
(9.81184e-05 -5.89134e-05 0.0110712)
(5.89827e-05 -5.89765e-05 0.0110481)
(1.97487e-05 -5.93256e-05 0.0110365)
(-1.97542e-05 -5.93188e-05 0.0110365)
(-5.89818e-05 -5.89752e-05 0.0110481)
(-9.81118e-05 -5.89128e-05 0.0110712)
(-0.000135353 -5.77767e-05 0.0111059)
(-0.000174449 -5.80473e-05 0.0111529)
(0.000173813 -9.53349e-05 0.0111764)
(0.00013528 -9.43174e-05 0.0111291)
(9.79702e-05 -9.79643e-05 0.0110944)
(5.89141e-05 -9.81264e-05 0.0110713)
(1.95917e-05 -9.90092e-05 0.0110596)
(-1.95986e-05 -9.90034e-05 0.0110596)
(-5.89059e-05 -9.81158e-05 0.0110713)
(-9.79633e-05 -9.79607e-05 0.0110944)
(-0.000135277 -9.43227e-05 0.0111291)
(-0.000173809 -9.53311e-05 0.0111764)
(0.000165831 -0.000133733 0.0112111)
(0.000131928 -0.000131917 0.0111639)
(9.43221e-05 -0.000135292 0.0111291)
(5.77772e-05 -0.00013535 0.0111059)
(1.87658e-05 -0.000136484 0.0110942)
(-1.87677e-05 -0.000136493 0.0110942)
(-5.77737e-05 -0.000135354 0.0111059)
(-9.43183e-05 -0.000135291 0.0111291)
(-0.000131918 -0.000131916 0.0111639)
(-0.000165825 -0.000133727 0.0112111)
(0.000169515 -0.000169522 0.0112575)
(0.000133744 -0.000165836 0.0112111)
(9.53384e-05 -0.000173818 0.0111764)
(5.80352e-05 -0.000174454 0.0111529)
(1.84248e-05 -0.000176697 0.0111413)
(-1.84224e-05 -0.00017669 0.0111413)
(-5.80285e-05 -0.000174453 0.0111529)
(-9.5333e-05 -0.000173811 0.0111764)
(-0.000133734 -0.000165836 0.0112111)
(-0.000169517 -0.000169518 0.0112575)
(0.000143992 0.000143996 0.0114425)
(0.000114557 0.000146892 0.0113984)
(8.2084e-05 0.000154974 0.0113617)
(4.9877e-05 0.000157725 0.0113359)
(1.5851e-05 0.000160437 0.0113232)
(-1.58421e-05 0.000160434 0.0113232)
(-4.98747e-05 0.000157726 0.0113359)
(-8.20833e-05 0.000154973 0.0113617)
(-0.000114555 0.000146894 0.0113983)
(-0.000143984 0.000144 0.0114425)
(0.000146889 0.000114556 0.0113984)
(0.000115529 0.000115526 0.0113471)
(8.21907e-05 0.000120047 0.011308)
(5.01415e-05 0.000121347 0.0112813)
(1.61864e-05 0.000122898 0.011268)
(-1.6181e-05 0.000122898 0.011268)
(-5.01408e-05 0.000121358 0.0112813)
(-8.21884e-05 0.000120054 0.011308)
(-0.000115524 0.000115525 0.0113471)
(-0.000146889 0.000114553 0.0113984)
(0.000154971 8.20858e-05 0.0113617)
(0.000120062 8.2192e-05 0.011308)
(8.68002e-05 8.67995e-05 0.0112674)
(5.20707e-05 8.78467e-05 0.0112404)
(1.72906e-05 8.91812e-05 0.011227)
(-1.72927e-05 8.91748e-05 0.011227)
(-5.20645e-05 8.78352e-05 0.0112404)
(-8.67894e-05 8.67925e-05 0.0112675)
(-0.000120057 8.21902e-05 0.011308)
(-0.000154969 8.20891e-05 0.0113617)
(0.000157713 4.98791e-05 0.0113359)
(0.000121361 5.01437e-05 0.0112813)
(8.78358e-05 5.20754e-05 0.0112404)
(5.26369e-05 5.26257e-05 0.0112133)
(1.76038e-05 5.32277e-05 0.0112)
(-1.75957e-05 5.32355e-05 0.0112)
(-5.2631e-05 5.26196e-05 0.0112133)
(-8.78343e-05 5.20733e-05 0.0112404)
(-0.000121362 5.01455e-05 0.0112813)
(-0.000157717 4.98744e-05 0.011336)
(0.00016044 1.58502e-05 0.0113232)
(0.000122896 1.61863e-05 0.011268)
(8.91781e-05 1.7298e-05 0.011227)
(5.32358e-05 1.75999e-05 0.0112)
(1.78988e-05 1.78993e-05 0.0111867)
(-1.78982e-05 1.7901e-05 0.0111867)
(-5.32286e-05 1.76049e-05 0.0112)
(-8.91805e-05 1.72974e-05 0.011227)
(-0.000122898 1.61863e-05 0.011268)
(-0.00016043 1.58467e-05 0.0113232)
(0.000160434 -1.58559e-05 0.0113232)
(0.000122903 -1.6184e-05 0.011268)
(8.91734e-05 -1.72887e-05 0.011227)
(5.32299e-05 -1.75961e-05 0.0112)
(1.78906e-05 -1.79002e-05 0.0111867)
(-1.78972e-05 -1.78956e-05 0.0111867)
(-5.32307e-05 -1.75998e-05 0.0112)
(-8.91796e-05 -1.72884e-05 0.011227)
(-0.000122893 -1.6185e-05 0.011268)
(-0.000160436 -1.58492e-05 0.0113232)
(0.000157722 -4.98749e-05 0.011336)
(0.000121349 -5.0136e-05 0.0112813)
(8.78381e-05 -5.20643e-05 0.0112404)
(5.2635e-05 -5.26238e-05 0.0112133)
(1.7606e-05 -5.32357e-05 0.0112)
(-1.76032e-05 -5.32307e-05 0.0112)
(-5.26331e-05 -5.26214e-05 0.0112133)
(-8.78331e-05 -5.20658e-05 0.0112404)
(-0.000121351 -5.01399e-05 0.0112813)
(-0.000157724 -4.98758e-05 0.011336)
(0.000154975 -8.20782e-05 0.0113617)
(0.000120056 -8.21787e-05 0.011308)
(8.68036e-05 -8.67993e-05 0.0112674)
(5.20695e-05 -8.7845e-05 0.0112404)
(1.72988e-05 -8.91717e-05 0.011227)
(-1.73061e-05 -8.91667e-05 0.011227)
(-5.20684e-05 -8.78388e-05 0.0112404)
(-8.67956e-05 -8.67989e-05 0.0112675)
(-0.000120054 -8.21881e-05 0.011308)
(-0.000154971 -8.20849e-05 0.0113617)
(0.000146894 -0.000114548 0.0113984)
(0.000115527 -0.000115521 0.0113471)
(8.21876e-05 -0.000120053 0.011308)
(5.0139e-05 -0.000121339 0.0112813)
(1.61873e-05 -0.000122888 0.011268)
(-1.61885e-05 -0.000122899 0.011268)
(-5.01437e-05 -0.000121351 0.0112813)
(-8.21895e-05 -0.000120059 0.011308)
(-0.000115525 -0.000115523 0.0113471)
(-0.000146892 -0.000114551 0.0113984)
(0.000143993 -0.000143985 0.0114425)
(0.00011455 -0.000146889 0.0113984)
(8.20841e-05 -0.000154973 0.0113617)
(4.98647e-05 -0.000157719 0.011336)
(1.58581e-05 -0.000160434 0.0113232)
(-1.58594e-05 -0.000160423 0.0113232)
(-4.98629e-05 -0.000157716 0.011336)
(-8.20923e-05 -0.000154972 0.0113617)
(-0.000114553 -0.000146893 0.0113984)
(-0.000144002 -0.000143986 0.0114425)
(0.000124231 0.000124223 0.0115967)
(9.93243e-05 0.000130801 0.0115624)
(7.168e-05 0.000138341 0.0115305)
(4.33845e-05 0.000142227 0.0115076)
(1.39041e-05 0.000145055 0.0114963)
(-1.39101e-05 0.000145061 0.0114963)
(-4.33902e-05 0.000142233 0.0115076)
(-7.16879e-05 0.000138344 0.0115305)
(-9.93355e-05 0.00013081 0.0115625)
(-0.000124239 0.000124228 0.0115967)
(0.000130798 9.93277e-05 0.0115624)
(0.000101887 0.000101879 0.0115173)
(7.24193e-05 0.000106729 0.0114832)
(4.39128e-05 0.000108669 0.01146)
(1.41609e-05 0.000110342 0.0114486)
(-1.41745e-05 0.00011033 0.0114486)
(-4.39123e-05 0.000108677 0.01146)
(-7.24236e-05 0.000106731 0.0114832)
(-0.000101884 0.000101881 0.0115173)
(-0.0001308 9.93281e-05 0.0115625)
(0.000138345 7.16707e-05 0.0115305)
(0.000106731 7.24198e-05 0.0114832)
(7.71933e-05 7.71936e-05 0.0114485)
(4.61543e-05 7.86953e-05 0.0114253)
(1.53644e-05 8.01838e-05 0.0114138)
(-1.53693e-05 8.01816e-05 0.0114138)
(-4.61641e-05 7.86913e-05 0.0114253)
(-7.71976e-05 7.72008e-05 0.0114485)
(-0.000106738 7.24245e-05 0.0114832)
(-0.000138352 7.16737e-05 0.0115305)
(0.000142236 4.33868e-05 0.0115076)
(0.000108679 4.391e-05 0.01146)
(7.86854e-05 4.61633e-05 0.0114253)
(4.69768e-05 4.69665e-05 0.011402)
(1.57193e-05 4.76776e-05 0.0113903)
(-1.57113e-05 4.76846e-05 0.0113903)
(-4.69782e-05 4.69664e-05 0.011402)
(-7.86928e-05 4.61581e-05 0.0114253)
(-0.000108683 4.39141e-05 0.01146)
(-0.000142233 4.33931e-05 0.0115076)
(0.000145069 1.38993e-05 0.0114963)
(0.000110333 1.41634e-05 0.0114486)
(8.01871e-05 1.53558e-05 0.0114138)
(4.76823e-05 1.57138e-05 0.0113903)
(1.60638e-05 1.60563e-05 0.0113786)
(-1.60601e-05 1.60701e-05 0.0113786)
(-4.76862e-05 1.57229e-05 0.0113903)
(-8.01969e-05 1.53611e-05 0.0114137)
(-0.000110345 1.4163e-05 0.0114486)
(-0.000145068 1.38973e-05 0.0114963)
(0.000145054 -1.39054e-05 0.0114963)
(0.000110337 -1.4165e-05 0.0114486)
(8.01838e-05 -1.53623e-05 0.0114137)
(4.76861e-05 -1.57268e-05 0.0113903)
(1.60601e-05 -1.60742e-05 0.0113786)
(-1.60709e-05 -1.60646e-05 0.0113786)
(-4.76763e-05 -1.57223e-05 0.0113903)
(-8.02028e-05 -1.53655e-05 0.0114138)
(-0.000110335 -1.41689e-05 0.0114486)
(-0.000145068 -1.39084e-05 0.0114963)
(0.00014223 -4.33962e-05 0.0115076)
(0.000108675 -4.39114e-05 0.01146)
(7.86889e-05 -4.6162e-05 0.0114253)
(4.69727e-05 -4.6969e-05 0.011402)
(1.57194e-05 -4.76889e-05 0.0113903)
(-1.57208e-05 -4.76843e-05 0.0113903)
(-4.69757e-05 -4.69677e-05 0.011402)
(-7.86907e-05 -4.61668e-05 0.0114253)
(-0.000108675 -4.39165e-05 0.01146)
(-0.000142226 -4.33936e-05 0.0115076)
(0.000138348 -7.1673e-05 0.0115305)
(0.000106719 -7.24256e-05 0.0114831)
(7.72025e-05 -7.72072e-05 0.0114485)
(4.61603e-05 -7.87049e-05 0.0114253)
(1.53604e-05 -8.01938e-05 0.0114137)
(-1.53663e-05 -8.01872e-05 0.0114138)
(-4.6158e-05 -7.86889e-05 0.0114253)
(-7.72027e-05 -7.72056e-05 0.0114485)
(-0.000106722 -7.24262e-05 0.0114832)
(-0.000138348 -7.16778e-05 0.0115305)
(0.000130799 -9.93355e-05 0.0115625)
(0.000101889 -0.000101889 0.0115173)
(7.24268e-05 -0.000106746 0.0114832)
(4.39098e-05 -0.000108672 0.01146)
(1.4163e-05 -0.000110334 0.0114486)
(-1.41715e-05 -0.000110348 0.0114486)
(-4.3911e-05 -0.000108682 0.01146)
(-7.24271e-05 -0.000106741 0.0114831)
(-0.000101885 -0.000101886 0.0115173)
(-0.000130804 -9.93327e-05 0.0115625)
(0.000124233 -0.000124242 0.0115967)
(9.93439e-05 -0.000130812 0.0115624)