/*--------------------------------*- C++ -*----------------------------------*\
| =========                 |                                                 |
| \\      /  F ield         | OpenFOAM: The Open Source CFD Toolbox           |
|  \\    /   O peration     | Version:  2406                                  |
|   \\  /    A nd           | Website:  www.openfoam.com                      |
|    \\/     M anipulation  |                                                 |
\*---------------------------------------------------------------------------*/
FoamFile
{
    version     2.0;
    format      ascii;
    arch        "LSB;label=32;scalar=64";
    class       surfaceScalarField;
    location    "3";
    object      phi;
}
// * * * * * * * * * * * * * * * * * * * * * * * * * * * * * * * * * * * * * //

dimensions      [0 3 -1 0 0 0 0];

oriented        oriented;

internalField   nonuniform List<scalar> 
43700
(
1.81614e-08
1.81627e-08
4.79363e-07
-2.28337e-08
-2.28357e-08
1.3507e-08
1.66789e-08
5.18569e-07
-2.12095e-08
8.95421e-09
1.54524e-08
5.48374e-07
-1.98425e-08
4.47776e-09
1.47506e-08
5.68467e-07
-1.90319e-08
-9.74969e-13
1.43335e-08
5.78564e-07
-1.8491e-08
-4.47778e-09
1.4334e-08
5.78563e-07
-1.84897e-08
-8.9541e-09
1.47506e-08
5.68468e-07
-1.90316e-08
-1.35069e-08
1.5452e-08
5.48373e-07
-1.98407e-08
-1.81633e-08
1.66786e-08
5.1857e-07
-2.12094e-08
1.81623e-08
4.79362e-07
-2.28347e-08
-2.28348e-08
1.66777e-08
1.35079e-08
5.18569e-07
-2.12097e-08
1.23065e-08
1.23078e-08
5.5459e-07
8.05895e-09
1.13535e-08
5.82034e-07
4.00289e-09
1.07637e-08
6.00541e-07
-3.14932e-13
1.04448e-08
6.09864e-07
-4.00268e-09
1.04446e-08
6.09864e-07
-8.05919e-09
1.07636e-08
6.00542e-07
-1.23055e-08
1.13536e-08
5.82035e-07
-1.6679e-08
1.23061e-08
5.54589e-07
1.35083e-08
5.18569e-07
-2.12099e-08
1.54518e-08
8.95369e-09
5.48373e-07
-1.98415e-08
1.13533e-08
8.06022e-09
5.82034e-07
7.42814e-09
7.42831e-09
6.07725e-07
3.67944e-09
7.0172e-09
6.25058e-07
-1.53926e-12
6.80992e-09
6.33792e-07
-3.679e-09
6.81128e-09
6.33792e-07
-7.4275e-09
7.01707e-09
6.25057e-07
-1.13534e-08
7.42816e-09
6.07725e-07
-1.54513e-08
8.05997e-09
5.82033e-07
8.95368e-09
5.48375e-07
-1.98417e-08
1.47512e-08
4.47724e-09
5.68469e-07
-1.90316e-08
1.07628e-08
4.00207e-09
6.00542e-07
7.01612e-09
3.67978e-09
6.25057e-07
3.46391e-09
3.46466e-09
6.41608e-07
-8.02654e-13
3.35959e-09
6.49956e-07
-3.46437e-09
3.35988e-09
6.49958e-07
-7.01599e-09
3.4643e-09
6.41608e-07
-1.07624e-08
3.67973e-09
6.25058e-07
-1.47503e-08
4.00247e-09
6.00542e-07
4.47788e-09
5.68468e-07
-1.90315e-08
1.43344e-08
-5.617e-13
5.78564e-07
-1.849e-08
1.0445e-08
-8.50398e-13
6.09863e-07
6.8101e-09
-7.26893e-13
6.33792e-07
3.35903e-09
4.03326e-13
6.49958e-07
-7.57172e-13
4.35059e-13
6.58111e-07
-3.3597e-09
-5.4015e-13
6.58111e-07
-6.81057e-09
-7.71105e-14
6.49957e-07
-1.04438e-08
-6.12979e-13
6.33792e-07
-1.43326e-08
-4.88753e-13
6.09863e-07
-6.40701e-13
5.78564e-07
-1.84904e-08
1.43339e-08
-4.47899e-09
5.78564e-07
-1.84902e-08
1.04447e-08
-4.00354e-09
6.09863e-07
6.81092e-09
-3.67974e-09
6.33791e-07
3.35947e-09
-3.46491e-09
6.49956e-07
-6.12475e-13
-3.35976e-09
6.58112e-07
-3.36004e-09
-3.36057e-09
6.58112e-07
-6.811e-09
-3.46341e-09
6.49957e-07
-1.04444e-08
-3.67971e-09
6.33792e-07
-1.43326e-08
-4.00206e-09
6.09864e-07
-4.47927e-09
5.78564e-07
-1.84905e-08
1.4752e-08
-8.95451e-09
5.68468e-07
-1.90323e-08
1.07639e-08
-8.06159e-09
6.00542e-07
7.01619e-09
-7.42855e-09
6.25057e-07
3.46365e-09
-7.01818e-09
6.4161e-07
-6.36107e-13
-6.81053e-09
6.49958e-07
-3.46387e-09
-6.8107e-09
6.49957e-07
-7.01702e-09
-7.01658e-09
6.41609e-07
-1.07632e-08
-7.42768e-09
6.25056e-07
-1.47508e-08
-8.05974e-09
6.00542e-07
-8.95278e-09
5.68468e-07
-1.9031e-08
1.54519e-08
-1.35094e-08
5.48374e-07
-1.9842e-08
1.13543e-08
-1.23071e-08
5.82034e-07
7.42764e-09
-1.13535e-08
6.07725e-07
3.68009e-09
-1.07636e-08
6.25057e-07
3.49891e-13
-1.0445e-08
6.33791e-07
-3.67887e-09
-1.04444e-08
6.33791e-07
-7.42802e-09
-1.0763e-08
6.25058e-07
-1.13536e-08
-1.13525e-08
6.07725e-07
-1.54506e-08
-1.23055e-08
5.82035e-07
-1.35082e-08
5.48375e-07
-1.98412e-08
1.66793e-08
-1.81634e-08
5.1857e-07
-2.12097e-08
1.23061e-08
-1.66797e-08
5.54589e-07
8.06056e-09
-1.54524e-08
5.82035e-07
4.00249e-09
-1.47525e-08
6.00541e-07
1.23294e-12
-1.43339e-08
6.09864e-07
-4.0021e-09
-1.43338e-08
6.09864e-07
-8.05956e-09
-1.47511e-08
6.00542e-07
-1.23059e-08
-1.54515e-08
5.82034e-07
-1.66785e-08
-1.66784e-08
5.54589e-07
-1.81629e-08
5.1857e-07
-2.12097e-08
1.81616e-08
4.79363e-07
-2.28355e-08
-2.2834e-08
1.35071e-08
5.18569e-07
-2.12111e-08
8.95355e-09
5.48374e-07
-1.98417e-08
4.47905e-09
5.68467e-07
-1.90325e-08
1.01432e-12
5.78565e-07
-1.84892e-08
-4.47788e-09
5.78563e-07
-1.84895e-08
-8.95352e-09
5.68468e-07
-1.90321e-08
-1.35071e-08
5.48374e-07
-1.98418e-08
-1.81618e-08
5.1857e-07
-2.12092e-08
4.79363e-07
-2.2835e-08
-2.28355e-08
2.96024e-08
2.96027e-08
4.90492e-07
-3.51671e-08
-3.5167e-08
2.15867e-08
2.4869e-08
5.29873e-07
-2.81564e-08
1.44131e-08
2.30206e-08
5.59802e-07
-2.7275e-08
7.18543e-09
2.15344e-08
5.79975e-07
-2.58131e-08
6.40527e-14
2.08558e-08
5.90096e-07
-2.5203e-08
-7.1852e-09
2.08557e-08
5.90096e-07
-2.52035e-08
-1.44124e-08
2.15341e-08
5.79976e-07
-2.58135e-08
-2.15858e-08
2.302e-08
5.59803e-07
-2.72752e-08
-2.96019e-08
2.48682e-08
5.29874e-07
-2.8156e-08
2.96021e-08
4.90493e-07
-3.51672e-08
-3.51665e-08
2.4868e-08
2.15864e-08
5.29873e-07
-2.8156e-08
1.91684e-08
1.91676e-08
5.6599e-07
1.31028e-08
1.76883e-08
5.93432e-07
6.61767e-09
1.66254e-08
6.11935e-07
-1.28706e-13
1.60988e-08
6.21239e-07
-6.61844e-09
1.60988e-08
6.21239e-07
-1.31032e-08
1.66249e-08
6.11936e-07
-1.91683e-08
1.76871e-08
5.93432e-07
-2.48684e-08
1.91672e-08
5.6599e-07
2.15855e-08
5.29872e-07
-2.81552e-08
2.30193e-08
1.44128e-08
5.59802e-07
-2.72751e-08
1.76876e-08
1.31024e-08
5.93431e-07
1.20237e-08
1.20234e-08
6.19052e-07
6.073e-09
1.13045e-08
6.36329e-07
-8.86258e-14
1.09387e-08
6.45025e-07
-6.07277e-09
1.09381e-08
6.45025e-07
-1.20235e-08
1.1305e-08
6.36327e-07
-1.76874e-08
1.20236e-08
6.19054e-07
-2.30203e-08
1.31033e-08
5.93431e-07
1.44128e-08
5.59803e-07
-2.72753e-08
2.15338e-08
7.18637e-09
5.79975e-07
-2.58132e-08
1.66246e-08
6.61806e-09
6.11935e-07
1.13044e-08
6.0724e-09
6.36329e-07
5.71669e-09
5.71586e-09
6.52785e-07
2.24335e-14
5.53158e-09
6.6108e-07
-5.71642e-09
5.53206e-09
6.6108e-07
-1.13048e-08
5.71726e-09
6.52785e-07
-1.66251e-08
6.07234e-09
6.36329e-07
-2.15339e-08
6.6183e-09
6.11935e-07
7.18525e-09
5.79976e-07
-2.58139e-08
2.08542e-08
-2.77882e-13
5.90097e-07
-2.52022e-08
1.60981e-08
8.37361e-13
6.21238e-07
1.09376e-08
1.31404e-13
6.45024e-07
5.53208e-09
-8.14659e-15
6.6108e-07
3.9061e-13
-6.33764e-13
6.69175e-07
-5.53117e-09
1.15976e-12
6.69174e-07
-1.09379e-08
2.61193e-13
6.61081e-07
-1.60991e-08
1.49929e-13
6.45026e-07
-2.08557e-08
-6.29566e-13
6.21239e-07
-6.9152e-13
5.90096e-07
-2.52041e-08
2.08551e-08
-7.18569e-09
5.90097e-07
-2.5203e-08
1.60989e-08
-6.61772e-09
6.21239e-07
1.0938e-08
-6.0718e-09
6.45025e-07
5.53159e-09
-5.71679e-09
6.61079e-07
1.26853e-13
-5.53191e-09
6.69175e-07
-5.53169e-09
-5.5308e-09
6.69175e-07
-1.09385e-08
-5.71748e-09
6.6108e-07
-1.60988e-08
-6.07257e-09
6.45025e-07
-2.0856e-08
-6.61929e-09
6.2124e-07
-7.18649e-09
5.90096e-07
-2.52037e-08
2.15329e-08
-1.44137e-08
5.79976e-07
-2.5812e-08
1.66244e-08
-1.31035e-08
6.11935e-07
1.13042e-08
-1.20244e-08
6.36328e-07
5.71717e-09
-1.13046e-08
6.52786e-07
-8.77437e-14
-1.09386e-08
6.61081e-07
-5.71605e-09
-1.09381e-08
6.61081e-07
-1.13052e-08
-1.13064e-08
6.52785e-07
-1.66258e-08
-1.20246e-08
6.36328e-07
-2.15338e-08
-1.31044e-08
6.11935e-07
-1.44143e-08
5.79976e-07
-2.58149e-08
2.30191e-08
-2.15863e-08
5.59802e-07
-2.72748e-08
1.76868e-08
-1.9168e-08
5.93431e-07
1.2023e-08
-1.76877e-08
6.19052e-07
6.0724e-09
-1.66249e-08
6.36329e-07
3.15037e-13
-1.60988e-08
6.45024e-07
-6.07293e-09
-1.60995e-08
6.45025e-07
-1.20237e-08
-1.66251e-08
6.36329e-07
-1.76884e-08
-1.76886e-08
6.19053e-07
-2.30209e-08
-1.91681e-08
5.93431e-07
-2.15869e-08
5.59804e-07
-2.72763e-08
2.48682e-08
-2.96021e-08
5.29873e-07
-2.81555e-08
1.9168e-08
-2.48692e-08
5.65991e-07
1.31028e-08
-2.30205e-08
5.93432e-07
6.61816e-09
-2.15335e-08
6.11934e-07
-5.58534e-13
-2.08561e-08
6.2124e-07
-6.61898e-09
-2.08556e-08
6.21239e-07
-1.31039e-08
-2.15337e-08
6.11935e-07
-1.91694e-08
-2.30209e-08
5.93432e-07
-2.48699e-08
-2.48687e-08
5.6599e-07
-2.96026e-08
5.29872e-07
-2.81576e-08
2.96024e-08
4.90493e-07
-3.51679e-08
-3.51674e-08
2.15874e-08
5.29872e-07
-2.81566e-08
1.44129e-08
5.59803e-07
-2.72753e-08
7.1847e-09
5.79976e-07
-2.58139e-08
5.16501e-13
5.90097e-07
-2.52037e-08
-7.18593e-09
5.90096e-07
-2.52032e-08
-1.44137e-08
5.79977e-07
-2.58138e-08
-2.15872e-08
5.59802e-07
-2.72758e-08
-2.96034e-08
5.29873e-07
-2.81563e-08
4.90492e-07
-3.51667e-08
-3.51692e-08
3.39537e-08
3.39548e-08
5.02228e-07
-3.98217e-08
-3.98222e-08
2.51932e-08
2.88859e-08
5.42154e-07
-3.2406e-08
1.70094e-08
2.71277e-08
5.72482e-07
-3.16217e-08
8.50084e-09
2.53561e-08
5.92897e-07
-2.97692e-08
2.26343e-13
2.46558e-08
6.03135e-07
-2.91949e-08
-8.49984e-09
2.4656e-08
6.03135e-07
-2.91949e-08
-1.70087e-08
2.53551e-08
5.92898e-07
-2.97698e-08
-2.51933e-08
2.71278e-08
5.72481e-07
-3.1622e-08
-3.39526e-08
2.88857e-08
5.42154e-07
-3.24068e-08
3.39537e-08
5.02228e-07
-3.98202e-08
-3.98218e-08
2.88859e-08
2.51944e-08
5.42155e-07
-3.24073e-08
2.25157e-08
2.25162e-08
5.78731e-07
1.55612e-08
2.10601e-08
6.06453e-07
7.89059e-09
1.98351e-08
6.25126e-07
2.86106e-13
1.92884e-08
6.34497e-07
-7.89117e-09
1.92884e-08
6.34498e-07
-1.55611e-08
1.98356e-08
6.25125e-07
-2.25153e-08
2.10612e-08
6.06453e-07
-2.88863e-08
2.2516e-08
5.78731e-07
2.5194e-08
5.42153e-07
-3.24069e-08
2.71271e-08
1.70079e-08
5.72482e-07
-3.16231e-08
2.10608e-08
1.55611e-08
6.06453e-07
1.44518e-08
1.44515e-08
6.32271e-07
7.32171e-09
1.3634e-08
6.49661e-07
6.48268e-13
1.32336e-08
6.58402e-07
-7.32193e-09
1.32329e-08
6.58402e-07
-1.44524e-08
1.36342e-08
6.49659e-07
-2.10608e-08
1.44517e-08
6.32272e-07
-2.71271e-08
1.55618e-08
6.06453e-07
1.70095e-08
5.72482e-07
-3.16226e-08
2.53546e-08
8.50034e-09
5.92897e-07
-2.9769e-08
1.98354e-08
7.89119e-09
6.25125e-07
1.36342e-08
7.32216e-09
6.4966e-07
6.93031e-09
6.9297e-09
6.66193e-07
-2.10274e-13
6.72835e-09
6.74516e-07
-6.93091e-09
6.72862e-09
6.74515e-07
-1.36349e-08
6.93041e-09
6.66193e-07
-1.98357e-08
7.32231e-09
6.4966e-07
-2.53557e-08
7.89118e-09
6.25125e-07
8.50039e-09
5.92898e-07
-2.97696e-08
2.46566e-08
-2.66626e-13
6.03136e-07
-2.91955e-08
1.92878e-08
-9.48279e-13
6.34497e-07
1.32335e-08
-5.06177e-13
6.58402e-07
6.72881e-09
-3.56111e-13
6.74516e-07
6.59016e-13
-5.93707e-14
6.82631e-07
-6.72892e-09
-4.0882e-13
6.8263e-07
-1.32337e-08
2.80428e-13
6.74516e-07
-1.92887e-08
1.52282e-13
6.58402e-07
-2.46566e-08
3.59363e-13
6.34497e-07
3.58268e-13
6.03135e-07
-2.91947e-08
2.46563e-08
-8.5009e-09
6.03135e-07
-2.91942e-08
1.92885e-08
-7.89173e-09
6.34497e-07
1.32334e-08
-7.32196e-09
6.58401e-07
6.72827e-09
-6.93115e-09
6.74516e-07
6.91461e-14
-6.72873e-09
6.82632e-07
-6.72888e-09
-6.72915e-09
6.82632e-07
-1.32342e-08
-6.93076e-09
6.74516e-07
-1.92887e-08
-7.3223e-09
6.58402e-07
-2.46567e-08
-7.89045e-09
6.34498e-07
-8.50032e-09
6.03135e-07
-2.9195e-08
2.53566e-08
-1.70088e-08
5.92898e-07
-2.97701e-08
1.98361e-08
-1.55605e-08
6.25125e-07
1.36343e-08
-1.44519e-08
6.4966e-07
6.93094e-09
-1.36342e-08
6.66192e-07
1.32811e-13
-1.32341e-08
6.74516e-07
-6.93031e-09
-1.32337e-08
6.74516e-07
-1.36345e-08
-1.36343e-08
6.66194e-07
-1.98353e-08
-1.44516e-08
6.49659e-07
-2.53562e-08
-1.55602e-08
6.25126e-07
-1.70084e-08
5.92898e-07
-2.97695e-08
2.71281e-08
-2.51924e-08
5.72482e-07
-3.16228e-08
2.1061e-08
-2.2515e-08
6.06453e-07
1.44527e-08
-2.10603e-08
6.32271e-07
7.32258e-09
-1.98352e-08
6.4966e-07
-1.14945e-13
-1.92894e-08
6.58401e-07
-7.32269e-09
-1.92889e-08
6.58402e-07
-1.44518e-08
-1.98359e-08
6.49659e-07
-2.10612e-08
-2.10617e-08
6.32271e-07
-2.71277e-08
-2.25149e-08
6.06453e-07
-2.51927e-08
5.72483e-07
-3.16219e-08
2.88874e-08
-3.39532e-08
5.42155e-07
-3.24072e-08
2.25159e-08
-2.88856e-08
5.78731e-07
1.55612e-08
-2.71267e-08
6.06453e-07
7.89088e-09
-2.53556e-08
6.25125e-07
6.36919e-13
-2.46562e-08
6.34498e-07
-7.89109e-09
-2.46561e-08
6.34497e-07
-1.55606e-08
-2.53558e-08
6.25126e-07
-2.25146e-08
-2.71278e-08
6.06452e-07
-2.88855e-08
-2.88853e-08
5.78731e-07
-3.3954e-08
5.42154e-07
-3.2406e-08
3.39542e-08
5.02228e-07
-3.98208e-08
-3.98213e-08
2.51934e-08
5.42154e-07
-3.24056e-08
1.7009e-08
5.72482e-07
-3.16217e-08
8.50049e-09
5.92898e-07
-2.97687e-08
8.82324e-13
6.03135e-07
-2.91941e-08
-8.5e-09
6.03134e-07
-2.91937e-08
-1.70087e-08
5.92899e-07
-2.97687e-08
-2.51922e-08
5.72481e-07
-3.16222e-08
-3.39527e-08
5.42154e-07
-3.24059e-08
5.02227e-07
-3.98205e-08
-3.98204e-08
3.38517e-08
3.38515e-08
5.1372e-07
-3.95976e-08
-3.9597e-08
2.55441e-08
2.94234e-08
5.54338e-07
-3.32988e-08
1.73501e-08
2.80267e-08
5.85183e-07
-3.25325e-08
8.6991e-09
2.63842e-08
6.05916e-07
-3.07516e-08
-3.45295e-13
2.58078e-08
6.16322e-07
-3.02946e-08
-8.69995e-09
2.58077e-08
6.16321e-07
-3.02948e-08
-1.73497e-08
2.63848e-08
6.05916e-07
-3.07523e-08
-2.55434e-08
2.80263e-08
5.85183e-07
-3.25326e-08
-3.3851e-08
2.94227e-08
5.54338e-07
-3.32995e-08
3.38523e-08
5.1372e-07
-3.95969e-08
-3.95963e-08
2.94235e-08
2.55444e-08
5.54338e-07
-3.32998e-08
2.30339e-08
2.30336e-08
5.91509e-07
1.59613e-08
2.18727e-08
6.19678e-07
8.11234e-09
2.07301e-08
6.3863e-07
-1.3078e-13
2.02795e-08
6.48138e-07
-8.11116e-09
2.02803e-08
6.48137e-07
-1.59616e-08
2.07308e-08
6.38629e-07
-2.30332e-08
2.18734e-08
6.19678e-07
-2.94226e-08
2.30335e-08
5.9151e-07
2.55444e-08
5.54338e-07
-3.32994e-08
2.8027e-08
1.73498e-08
5.85183e-07
-3.25333e-08
2.18731e-08
1.5961e-08
6.19679e-07
1.50726e-08
1.50731e-08
6.45871e-07
7.64904e-09
1.43152e-08
6.63499e-07
1.29407e-12
1.39753e-08
6.72354e-07
-7.64796e-09
1.39754e-08
6.72355e-07
-1.50725e-08
1.43151e-08
6.63499e-07
-2.18727e-08
1.5073e-08
6.45872e-07
-2.80261e-08
1.59614e-08
6.19678e-07
1.73493e-08
5.85183e-07
-3.25325e-08
2.63841e-08
8.69923e-09
6.05916e-07
-3.07537e-08
2.07292e-08
8.1118e-09
6.3863e-07
1.43152e-08
7.64879e-09
6.63499e-07
7.2923e-09
7.29014e-09
6.80243e-07
8.86697e-13
7.11793e-09
6.88663e-07
-7.29032e-09
7.11866e-09
6.88662e-07
-1.43154e-08
7.29038e-09
6.80242e-07
-2.07294e-08
7.64923e-09
6.63499e-07
-2.63837e-08
8.11197e-09
6.38629e-07
8.69961e-09
6.05917e-07
-3.07528e-08
2.58075e-08
-1.20166e-12
6.16322e-07
-3.02947e-08
2.02795e-08
5.23784e-13
6.48137e-07
1.39749e-08
3.15115e-13
6.72355e-07
7.11914e-09
2.67414e-13
6.88663e-07
6.54634e-13
-7.45484e-13
6.96867e-07
-7.11741e-09
1.07264e-12
6.96868e-07
-1.39746e-08
4.83111e-13
6.88662e-07
-2.0279e-08
1.19497e-13
6.72355e-07
-2.58075e-08
3.512e-13
6.48137e-07
-6.522e-13
6.16321e-07
-3.02934e-08
2.58075e-08
-8.69981e-09
6.16321e-07
-3.02935e-08
2.02795e-08
-8.11147e-09
6.48138e-07
1.39756e-08
-7.64853e-09
6.72355e-07
7.11856e-09
-7.28959e-09
6.88662e-07
2.09741e-13
-7.11855e-09
6.96869e-07
-7.11797e-09
-7.11793e-09
6.96868e-07
-1.39743e-08
-7.28973e-09
6.88662e-07
-2.02789e-08
-7.6484e-09
6.72354e-07
-2.58067e-08
-8.11112e-09
6.48138e-07
-8.70042e-09
6.16321e-07
-3.02933e-08
2.63841e-08
-1.73506e-08
6.05917e-07
-3.07528e-08
2.07296e-08
-1.59613e-08
6.38629e-07
1.43156e-08
-1.5072e-08
6.63499e-07
7.29017e-09
-1.43145e-08
6.80243e-07
5.5165e-13
-1.39747e-08
6.88663e-07
-7.28913e-09
-1.39749e-08
6.88662e-07
-1.43138e-08
-1.43146e-08
6.80243e-07
-2.07293e-08
-1.50729e-08
6.63499e-07
-2.63842e-08
-1.59621e-08
6.38631e-07
-1.73503e-08
6.05917e-07
-3.07523e-08
2.80261e-08
-2.55448e-08
5.85183e-07
-3.25326e-08
2.18727e-08
-2.30338e-08
6.19678e-07
1.50728e-08
-2.18735e-08
6.45872e-07
7.64885e-09
-2.07296e-08
6.63499e-07
7.42226e-13
-2.02788e-08
6.72354e-07
-7.6476e-09
-2.02794e-08
6.72355e-07
-1.50723e-08
-2.07304e-08
6.63499e-07
-2.18722e-08
-2.1874e-08
6.45872e-07
-2.80265e-08
-2.30346e-08
6.19679e-07
-2.55436e-08
5.85183e-07
-3.25326e-08
2.94223e-08
-3.38522e-08
5.54339e-07
-3.3299e-08
2.3034e-08
-2.94231e-08
5.91509e-07
1.59615e-08
-2.8028e-08
6.19679e-07
8.11139e-09
-2.63847e-08
6.38629e-07
-7.22651e-13
-2.58082e-08
6.48138e-07
-8.11144e-09
-2.58072e-08
6.48137e-07
-1.59608e-08
-2.63846e-08
6.3863e-07
-2.30335e-08
-2.8027e-08
6.19678e-07
-2.94227e-08
-2.94241e-08
5.91509e-07
-3.38518e-08
5.54338e-07
-3.32995e-08
3.38513e-08
5.13721e-07
-3.95977e-08
-3.95984e-08
2.55441e-08
5.54338e-07
-3.32999e-08
1.735e-08
5.85183e-07
-3.25336e-08
8.69986e-09
6.05916e-07
-3.0753e-08
-4.86466e-13
6.16321e-07
-3.0295e-08
-8.69923e-09
6.16321e-07
-3.02932e-08
-1.73493e-08
6.05917e-07
-3.07525e-08
-2.55445e-08
5.85182e-07
-3.25327e-08
-3.38515e-08
5.54338e-07
-3.33005e-08
5.1372e-07
-3.95977e-08
-3.95981e-08
3.09765e-08
3.09764e-08
5.24231e-07
-3.62322e-08
-3.62321e-08
2.37764e-08
2.76705e-08
5.65682e-07
-3.18135e-08
1.62176e-08
2.66965e-08
5.97115e-07
-3.10692e-08
8.16291e-09
2.53963e-08
6.18207e-07
-2.96328e-08
5.87274e-13
2.49878e-08
6.288e-07
-2.93043e-08
-8.16218e-09
2.49875e-08
6.28801e-07
-2.93044e-08
-1.62172e-08
2.53967e-08
6.18207e-07
-2.96332e-08
-2.37759e-08
2.66968e-08
5.97114e-07
-3.10697e-08
-3.09766e-08
2.76699e-08
5.65682e-07
-3.1814e-08
3.09772e-08
5.24231e-07
-3.62328e-08
-3.62325e-08
2.76708e-08
2.37767e-08
5.65682e-07
-3.18134e-08
2.16692e-08
2.1668e-08
6.03513e-07
1.49843e-08
2.08621e-08
6.32197e-07
7.62061e-09
1.99217e-08
6.51468e-07
-6.44416e-13
1.96041e-08
6.61142e-07
-7.61995e-09
1.9604e-08
6.6114e-07
-1.49846e-08
1.99226e-08
6.51468e-07
-2.16681e-08
2.08631e-08
6.32197e-07
-2.76701e-08
2.16684e-08
6.03513e-07
2.37764e-08
5.65682e-07
-3.18134e-08
2.66972e-08
1.62178e-08
5.97114e-07
-3.10687e-08
2.08634e-08
1.49844e-08
6.32197e-07
1.43818e-08
1.43828e-08
6.58831e-07
7.29911e-09
1.37602e-08
6.76745e-07
-2.45998e-13
1.35157e-08
6.85742e-07
-7.29944e-09
1.35153e-08
6.85744e-07
-1.43826e-08
1.37599e-08
6.76744e-07
-2.08625e-08
1.43827e-08
6.58832e-07
-2.66969e-08
1.49855e-08
6.32197e-07
1.62175e-08
5.97114e-07
-3.10695e-08
2.53969e-08
8.16365e-09
6.18207e-07
-2.96329e-08
1.99225e-08
7.61946e-09
6.51469e-07
1.37606e-08
7.29961e-09
6.76744e-07
7.00581e-09
7.0054e-09
6.93752e-07
1.06796e-12
6.88155e-09
7.02304e-07
-7.00601e-09
6.88085e-09
7.02302e-07
-1.37612e-08
7.00538e-09
6.93752e-07
-1.99234e-08
7.29981e-09
6.76744e-07
-2.53977e-08
7.6206e-09
6.51468e-07
8.1628e-09
6.18207e-07
-2.96324e-08
2.4988e-08
1.05784e-12
6.28801e-07
-2.93041e-08
1.96038e-08
5.5472e-13
6.6114e-07
1.3516e-08
-3.76116e-13
6.85743e-07
6.88199e-09
-8.01499e-13
7.02302e-07
4.17826e-13
-4.80208e-13
7.10631e-07
-6.88204e-09
-6.68209e-13
7.10631e-07
-1.35164e-08
-4.07626e-13
7.02302e-07
-1.96047e-08
-4.22352e-14
6.85743e-07
-2.49885e-08
-5.66992e-13
6.61141e-07
-4.58171e-13
6.28801e-07
-2.9305e-08
2.49883e-08
-8.16286e-09
6.288e-07
-2.93046e-08
1.96038e-08
-7.62055e-09
6.61141e-07
1.35147e-08
-7.29887e-09
6.85743e-07
6.88127e-09
-7.00518e-09
7.02301e-07
-4.45924e-13
-6.88281e-09
7.10632e-07
-6.88206e-09
-6.88151e-09
7.10631e-07
-1.35165e-08
-7.00594e-09
7.02302e-07
-1.96054e-08
-7.30024e-09
6.85743e-07
-2.49881e-08
-7.62014e-09
6.61141e-07
-8.16303e-09
6.288e-07
-2.93047e-08
2.53963e-08
-1.62175e-08
6.18208e-07
-2.96326e-08
1.99222e-08
-1.49837e-08
6.51468e-07
1.376e-08
-1.43827e-08
6.76744e-07
7.00575e-09
-1.37604e-08
6.93752e-07
4.96193e-13
-1.35162e-08
7.02302e-07
-7.00534e-09
-1.35161e-08
7.02302e-07
-1.37611e-08
-1.3761e-08
6.93753e-07
-1.99235e-08
-1.43828e-08
6.76744e-07
-2.53974e-08
-1.49838e-08
6.51469e-07
-1.62165e-08
6.18207e-07
-2.9633e-08
2.66973e-08
-2.37762e-08
5.97114e-07
-3.10704e-08
2.08635e-08
-2.16675e-08
6.32196e-07
1.43827e-08
-2.08628e-08
6.58832e-07
7.29891e-09
-1.99227e-08
6.76745e-07
-1.03577e-12
-1.96043e-08
6.85742e-07
-7.29989e-09
-1.96043e-08
6.85742e-07
-1.43826e-08
-1.99229e-08
6.76744e-07
-2.08625e-08
-2.08633e-08
6.58832e-07
-2.66974e-08
-2.16686e-08
6.32197e-07
-2.37764e-08
5.97115e-07
-3.107e-08
2.76715e-08
-3.09764e-08
5.65682e-07
-3.18142e-08
2.16683e-08
-2.76704e-08
6.03514e-07
1.49848e-08
-2.66964e-08
6.32196e-07
7.62013e-09
-2.53966e-08
6.51468e-07
6.13105e-13
-2.4987e-08
6.61141e-07
-7.6205e-09
-2.49871e-08
6.6114e-07
-1.49847e-08
-2.5397e-08
6.51469e-07
-2.16685e-08
-2.66972e-08
6.32196e-07
-2.76707e-08
-2.76705e-08
6.03513e-07
-3.09767e-08
5.65682e-07
-3.18142e-08
3.09769e-08
5.24231e-07
-3.62323e-08
-3.6232e-08
2.37767e-08
5.65682e-07
-3.1813e-08
1.62182e-08
5.97114e-07
-3.10688e-08
8.16348e-09
6.18206e-07
-2.96328e-08
6.56688e-13
6.28801e-07
-2.9304e-08
-8.16376e-09
6.288e-07
-2.93036e-08
-1.62175e-08
6.18207e-07
-2.9633e-08
-2.37765e-08
5.97113e-07
-3.10689e-08
-3.09777e-08
5.65682e-07
-3.18142e-08
5.24231e-07
-3.62328e-08
-3.6232e-08
2.70546e-08
2.70544e-08
5.33466e-07
-3.16725e-08
-3.16729e-08
2.11008e-08
2.49738e-08
5.75843e-07
-2.91797e-08
1.44506e-08
2.44292e-08
6.0789e-07
-2.85556e-08
7.30781e-09
2.35741e-08
6.2937e-07
-2.75938e-08
2.54629e-14
2.33424e-08
6.40165e-07
-2.73993e-08
-7.30771e-09
2.33424e-08
6.40165e-07
-2.73998e-08
-1.44507e-08
2.35738e-08
6.29371e-07
-2.75947e-08
-2.11011e-08
2.44294e-08
6.0789e-07
-2.85545e-08
-2.70556e-08
2.49728e-08
5.75843e-07
-2.91803e-08
2.70558e-08
5.33465e-07
-3.16732e-08
-3.16727e-08
2.49737e-08
2.11011e-08
5.75842e-07
-2.91798e-08
1.9543e-08
1.95425e-08
6.14375e-07
1.34681e-08
1.91023e-08
6.43599e-07
6.85164e-09
1.84394e-08
6.63219e-07
-2.86177e-13
1.82597e-08
6.73076e-07
-6.85177e-09
1.82592e-08
6.73075e-07
-1.34683e-08
1.84388e-08
6.6322e-07
-1.9543e-08
1.91023e-08
6.43599e-07
-2.49734e-08
1.95424e-08
6.14373e-07
2.11003e-08
5.75844e-07
-2.91786e-08
2.44294e-08
1.44507e-08
6.0789e-07
-2.85555e-08
1.91022e-08
1.34674e-08
6.43599e-07
1.31602e-08
1.31606e-08
6.70715e-07
6.68107e-09
1.27176e-08
6.88946e-07
9.88204e-14
1.25765e-08
6.98106e-07
-6.68035e-09
1.25771e-08
6.98107e-07
-1.31598e-08
1.27166e-08
6.88945e-07
-1.91016e-08
1.31604e-08
6.70717e-07
-2.443e-08
1.34684e-08
6.43599e-07
1.44505e-08
6.0789e-07
-2.85553e-08
2.35738e-08
7.30772e-09
6.29371e-07
-2.75944e-08
1.8439e-08
6.85141e-09
6.6322e-07
1.27171e-08
6.68101e-09
6.88946e-07
6.46835e-09
6.46806e-09
7.0625e-07
7.13931e-13
6.39573e-09
7.14951e-07
-6.46718e-09
6.39666e-09
7.1495e-07
-1.27169e-08
6.46846e-09
7.0625e-07
-1.84388e-08
6.68135e-09
6.88945e-07
-2.35746e-08
6.85201e-09
6.63219e-07
7.30824e-09
6.29369e-07
-2.7594e-08
2.3343e-08
-8.64506e-13
6.40166e-07
-2.73993e-08
1.82597e-08
1.15242e-13
6.73075e-07
1.25764e-08
-2.98442e-13
6.98107e-07
6.39575e-09
-2.54393e-13
7.14951e-07
6.85362e-13
-9.69365e-14
7.23422e-07
-6.3953e-09
1.23514e-12
7.23423e-07
-1.25765e-08
1.1207e-12
7.1495e-07
-1.82594e-08
8.00334e-13
6.98106e-07
-2.33428e-08
3.00232e-13
6.73076e-07
9.72349e-13
6.40165e-07
-2.7399e-08
2.33421e-08
-7.30916e-09
6.40166e-07
-2.73992e-08
1.826e-08
-6.85068e-09
6.73075e-07
1.25767e-08
-6.67998e-09
6.98107e-07
6.39592e-09
-6.46669e-09
7.14949e-07
7.50114e-14
-6.39564e-09
7.23423e-07
-6.39535e-09
-6.39517e-09
7.23423e-07
-1.25758e-08
-6.46692e-09
7.14951e-07
-1.82593e-08
-6.67955e-09
6.98107e-07
-2.33419e-08
-6.85128e-09
6.73075e-07
-7.30755e-09
6.40166e-07
-2.73991e-08
2.3574e-08
-1.44505e-08
6.2937e-07
-2.75943e-08
1.84388e-08
-1.34668e-08
6.63219e-07
1.27169e-08
-1.316e-08
6.88946e-07
6.46781e-09
-1.27166e-08
7.0625e-07
5.83131e-13
-1.25766e-08
7.14951e-07
-6.46743e-09
-1.25754e-08
7.1495e-07
-1.27159e-08
-1.27161e-08
7.06251e-07
-1.84383e-08
-1.31595e-08
6.88946e-07
-2.35733e-08
-1.34669e-08
6.6322e-07
-1.44496e-08
6.2937e-07
-2.75936e-08
2.4429e-08
-2.11009e-08
6.0789e-07
-2.85551e-08
1.91013e-08
-1.95434e-08
6.43598e-07
1.31608e-08
-1.91026e-08
6.70717e-07
6.68094e-09
-1.84387e-08
6.88947e-07
3.55341e-13
-1.82583e-08
6.98106e-07
-6.68084e-09
-1.8259e-08
6.98107e-07
-1.31593e-08
-1.84384e-08
6.88945e-07
-1.9101e-08
-1.91025e-08
6.70716e-07
-2.44274e-08
-1.95424e-08
6.43599e-07
-2.10999e-08
6.07891e-07
-2.85551e-08
2.49735e-08
-2.70567e-08
5.75844e-07
-2.91798e-08
1.95432e-08
-2.49738e-08
6.14374e-07
1.34676e-08
-2.44296e-08
6.43599e-07
6.85156e-09
-2.35736e-08
6.6322e-07
2.10587e-13
-2.3342e-08
6.73075e-07
-6.85177e-09
-2.33424e-08
6.73074e-07
-1.34671e-08
-2.3573e-08
6.6322e-07
-1.95428e-08
-2.44289e-08
6.43599e-07
-2.49722e-08
-2.49721e-08
6.14373e-07
-2.70543e-08
5.75844e-07
-2.91789e-08
2.70553e-08
5.33466e-07
-3.16731e-08
-3.1673e-08
2.11007e-08
5.75844e-07
-2.91806e-08
1.44501e-08
6.07889e-07
-2.85545e-08
7.30794e-09
6.2937e-07
-2.75946e-08
5.99608e-13
6.40167e-07
-2.73994e-08
-7.30737e-09
6.40165e-07
-2.73981e-08
-1.44496e-08
6.2937e-07
-2.75941e-08
-2.11e-08
6.0789e-07
-2.85544e-08
-2.70546e-08
5.75844e-07
-2.91788e-08
5.33466e-07
-3.16728e-08
-3.1673e-08
2.32053e-08
2.32059e-08
5.41438e-07
-2.71911e-08
-2.71909e-08
1.83169e-08
2.20298e-08
5.84791e-07
-2.60895e-08
1.25732e-08
2.17847e-08
6.17439e-07
-2.55906e-08
6.3807e-09
2.13034e-08
6.39299e-07
-2.50388e-08
9.00901e-14
2.12075e-08
6.50288e-07
-2.49493e-08
-6.38031e-09
2.12072e-08
6.50286e-07
-2.49486e-08
-1.25733e-08
2.13042e-08
6.393e-07
-2.50392e-08
-1.83169e-08
2.17847e-08
6.1744e-07
-2.55905e-08
-2.32043e-08
2.20311e-08
5.8479e-07
-2.60911e-08
2.32064e-08
5.41436e-07
-2.71904e-08
-2.7192e-08
2.20304e-08
1.83185e-08
5.8479e-07
-2.60893e-08
1.72045e-08
1.72042e-08
6.24026e-07
1.18003e-08
1.70219e-08
6.53766e-07
5.99974e-09
1.65999e-08
6.73723e-07
-3.5871e-13
1.6526e-08
6.83757e-07
-6.00055e-09
1.65249e-08
6.83757e-07
-1.18002e-08
1.66008e-08
6.73723e-07
-1.72033e-08
1.70214e-08
6.53766e-07
-2.20288e-08
1.72049e-08
6.24025e-07
1.83172e-08
5.84791e-07
-2.60886e-08
2.17846e-08
1.25739e-08
6.1744e-07
-2.55906e-08
1.70224e-08
1.1801e-08
6.53765e-07
1.17037e-08
1.1705e-08
6.8135e-07
5.94075e-09
1.14194e-08
6.99891e-07
-6.8176e-13
1.13602e-08
7.09213e-07
-5.94124e-09
1.13606e-08
7.09213e-07
-1.17046e-08
1.14186e-08
6.99891e-07
-1.70215e-08
1.17048e-08
6.8135e-07
-2.1784e-08
1.18013e-08
6.53765e-07
1.25738e-08
6.17439e-07
-2.55897e-08
2.13044e-08
6.38033e-09
6.39299e-07
-2.50393e-08
1.66005e-08
5.99982e-09
6.73724e-07
1.14177e-08
5.94161e-09
6.99892e-07
5.7988e-09
5.79857e-09
7.17491e-07
4.25583e-13
5.76767e-09
7.26343e-07
-5.79956e-09
5.76817e-09
7.26342e-07
-1.1419e-08
5.79861e-09
7.17491e-07
-1.6601e-08
5.94125e-09
6.99891e-07
-2.13034e-08
5.99999e-09
6.73723e-07
6.37996e-09
6.39298e-07
-2.50393e-08
2.12067e-08
3.19664e-13
6.50287e-07
-2.49486e-08
1.65257e-08
3.37666e-13
6.83756e-07
1.13608e-08
-3.99663e-13
7.09213e-07
5.76862e-09
-5.71047e-13
7.26342e-07
-6.15879e-13
-3.78788e-13
7.34959e-07
-5.76874e-09
-8.36428e-14
7.3496e-07
-1.13615e-08
-4.95804e-13
7.26341e-07
-1.65266e-08
1.14529e-13
7.09213e-07
-2.12072e-08
-4.21381e-13
6.83757e-07
-4.69663e-13
6.50286e-07
-2.49481e-08
2.12077e-08
-6.38036e-09
6.50288e-07
-2.49492e-08
1.6525e-08
-5.99967e-09
6.83756e-07
1.13592e-08
-5.94179e-09
7.09214e-07
5.76641e-09
-5.79896e-09
7.26341e-07
-7.48876e-13
-5.76892e-09
7.34959e-07
-5.76885e-09
-5.76908e-09
7.34959e-07
-1.13614e-08
-5.79913e-09
7.26342e-07
-1.65261e-08
-5.94155e-09
7.09213e-07
-2.12072e-08
-5.99999e-09
6.83756e-07
-6.38088e-09
6.50287e-07
-2.49487e-08
2.13029e-08
-1.25736e-08
6.39298e-07
-2.50398e-08
1.65992e-08
-1.18006e-08
6.73724e-07
1.1419e-08
-1.17052e-08
6.9989e-07
5.79914e-09
-1.14197e-08
7.17491e-07
-9.40138e-13
-1.13617e-08
7.26343e-07
-5.80009e-09
-1.13609e-08
7.26341e-07
-1.14194e-08
-1.14187e-08
7.17491e-07
-1.66003e-08
-1.17051e-08
6.99891e-07
-2.13037e-08
-1.18002e-08
6.73723e-07
-1.25735e-08
6.39298e-07
-2.50387e-08
2.17845e-08
-1.83166e-08
6.17439e-07
-2.55895e-08
1.70223e-08
-1.7205e-08
6.53765e-07
1.17053e-08
-1.70224e-08
6.8135e-07
5.94117e-09
-1.66008e-08
6.99891e-07
-1.29229e-12
-1.65259e-08
7.09213e-07
-5.9419e-09
-1.65255e-08
7.09213e-07
-1.17053e-08
-1.66012e-08
6.99891e-07
-1.70219e-08
-1.70224e-08
6.8135e-07
-2.17835e-08
-1.72047e-08
6.53765e-07
-1.83174e-08
6.1744e-07
-2.55897e-08
2.20302e-08
-2.32053e-08
5.84791e-07
-2.60898e-08
1.72048e-08
-2.203e-08
6.24025e-07
1.18009e-08
-2.17843e-08
6.53766e-07
5.99908e-09
-2.13029e-08
6.73723e-07
3.23125e-13
-2.1207e-08
6.83756e-07
-6.00008e-09
-2.12068e-08
6.83756e-07
-1.18009e-08
-2.13043e-08
6.73724e-07
-1.72053e-08
-2.17856e-08
6.53765e-07
-2.20305e-08
-2.20297e-08
6.24025e-07
-2.3205e-08
5.84791e-07
-2.60901e-08
2.32054e-08
5.41437e-07
-2.71906e-08
-2.71912e-08
1.83179e-08
5.84791e-07
-2.60905e-08
1.25736e-08
6.17439e-07
-2.55896e-08
6.37991e-09
6.39299e-07
-2.50392e-08
4.95294e-13
6.50288e-07
-2.49485e-08
-6.38022e-09
6.50286e-07
-2.49479e-08
-1.25734e-08
6.39299e-07
-2.50389e-08
-1.83178e-08
6.17439e-07
-2.55895e-08
-2.32055e-08
5.84792e-07
-2.60895e-08
5.41437e-07
-2.7191e-08
-2.71908e-08
2.0014e-08
2.00142e-08
5.48263e-07
-2.3426e-08
-2.34272e-08
1.59439e-08
1.93854e-08
5.92618e-07
-2.31426e-08
1.09671e-08
1.92919e-08
6.25851e-07
-2.27274e-08
5.57853e-09
1.90525e-08
6.48073e-07
-2.24384e-08
-7.88897e-13
1.9037e-08
6.5924e-07
-2.24097e-08
-5.5801e-09
1.90367e-08
6.5924e-07
-2.2411e-08
-1.09684e-08
1.90534e-08
6.48073e-07
-2.24379e-08
-1.5945e-08
1.92921e-08
6.25852e-07
-2.27265e-08
-2.0015e-08
1.93851e-08
5.92618e-07
-2.3142e-08
2.00139e-08
5.48261e-07
-2.34279e-08
-2.34259e-08
1.93856e-08
1.59441e-08
5.92617e-07
-2.31436e-08
1.51217e-08
1.51217e-08
6.32553e-07
1.03331e-08
1.50745e-08
6.62772e-07
5.24823e-09
1.4816e-08
6.83045e-07
-5.19716e-13
1.48007e-08
6.93243e-07
-5.24938e-09
1.47996e-08
6.93242e-07
-1.03334e-08
1.48157e-08
6.83045e-07
-1.51222e-08
1.50742e-08
6.62772e-07
-1.93861e-08
1.51216e-08
6.32554e-07
1.59438e-08
5.92617e-07
-2.31429e-08
1.9292e-08
1.09673e-08
6.25852e-07
-2.27275e-08
1.50739e-08
1.03336e-08
6.62771e-07
1.03514e-08
1.03519e-08
6.90795e-07
5.25426e-09
1.0172e-08
7.09631e-07
-4.33388e-13
1.01618e-08
7.19106e-07
-5.25561e-09
1.01623e-08
7.19106e-07
-1.0352e-08
1.01717e-08
7.09631e-07
-1.50744e-08
1.03523e-08
6.90795e-07
-1.92929e-08
1.03339e-08
6.62771e-07
1.09681e-08
6.25851e-07
-2.27281e-08
1.90528e-08
5.57922e-09
6.48072e-07
-2.24382e-08
1.48153e-08
5.25028e-09
6.83046e-07
1.01713e-08
5.25556e-09
7.09632e-07
5.15981e-09
5.16097e-09
7.27513e-07
9.44569e-13
5.15436e-09
7.3651e-07
-5.16078e-09
5.15479e-09
7.36509e-07
-1.0172e-08
5.16065e-09
7.27514e-07