/*--------------------------------*- C++ -*----------------------------------*\
| =========                 |                                                 |
| \\      /  F ield         | OpenFOAM: The Open Source CFD Toolbox           |
|  \\    /   O peration     | Version:  2406                                  |
|   \\  /    A nd           | Website:  www.openfoam.com                      |
|    \\/     M anipulation  |                                                 |
\*---------------------------------------------------------------------------*/
FoamFile
{
    version     2.0;
    format      ascii;
    arch        "LSB;label=32;scalar=64";
    class       volVectorField;
    location    "3";
    object      U;
}
// * * * * * * * * * * * * * * * * * * * * * * * * * * * * * * * * * * * * * //

dimensions      [0 1 -1 0 0 0 0];

internalField   nonuniform List<vector> 
15000
(
(0.000145512 0.000145514 0.0100011)
(0.000108677 0.000136576 0.00999989)
(7.4664e-05 0.000124782 0.00999876)
(4.39847e-05 0.000117724 0.00999767)
(1.46276e-05 0.000113399 0.00999709)
(-1.46298e-05 0.000113397 0.00999706)
(-4.39872e-05 0.000117725 0.0099977)
(-7.46645e-05 0.000124783 0.00999871)
(-0.000108681 0.000136574 0.00999988)
(-0.000145521 0.000145519 0.0100011)
(0.000136579 0.000108681 0.00999989)
(9.66264e-05 9.66361e-05 0.00999729)
(6.65188e-05 8.86389e-05 0.00999501)
(3.88859e-05 8.35009e-05 0.00999341)
(1.27527e-05 8.06758e-05 0.00999268)
(-1.2751e-05 8.06793e-05 0.00999268)
(-3.88864e-05 8.34993e-05 0.00999338)
(-6.65203e-05 8.86404e-05 0.00999503)
(-9.66285e-05 9.66313e-05 0.00999731)
(-0.000136582 0.000108681 0.00999989)
(0.00012478 7.46735e-05 0.00999873)
(8.8641e-05 6.65248e-05 0.00999503)
(6.05299e-05 6.05336e-05 0.00999226)
(3.5272e-05 5.66035e-05 0.0099907)
(1.15132e-05 5.46116e-05 0.00999009)
(-1.15182e-05 5.46185e-05 0.00999009)
(-3.52685e-05 5.66063e-05 0.0099907)
(-6.05295e-05 6.05322e-05 0.00999225)
(-8.86408e-05 6.65212e-05 0.00999499)
(-0.000124783 7.46717e-05 0.00999875)
(0.00011772 4.39832e-05 0.00999768)
(8.35053e-05 3.8887e-05 0.00999342)
(5.65966e-05 3.52682e-05 0.00999069)
(3.28161e-05 3.282e-05 0.0099894)
(1.06966e-05 3.16037e-05 0.00998902)
(-1.06981e-05 3.16052e-05 0.00998904)
(-3.28164e-05 3.28158e-05 0.00998941)
(-5.65936e-05 3.52693e-05 0.0099907)
(-8.35042e-05 3.88876e-05 0.0099934)
(-0.000117714 4.39856e-05 0.00999769)
(0.000113394 1.46223e-05 0.00999709)
(8.06823e-05 1.27428e-05 0.00999271)
(5.46183e-05 1.15217e-05 0.0099901)
(3.16016e-05 1.07029e-05 0.00998906)
(1.02969e-05 1.03052e-05 0.00998876)
(-1.03009e-05 1.03044e-05 0.00998878)
(-3.16078e-05 1.07026e-05 0.00998901)
(-5.46135e-05 1.15231e-05 0.00999006)
(-8.06741e-05 1.27449e-05 0.00999266)
(-0.000113388 1.46245e-05 0.00999708)
(0.000113391 -1.46222e-05 0.00999707)
(8.06805e-05 -1.27505e-05 0.00999268)
(5.46144e-05 -1.15277e-05 0.00999005)
(3.16089e-05 -1.06979e-05 0.00998902)
(1.0302e-05 -1.02971e-05 0.00998877)
(-1.03065e-05 -1.03083e-05 0.00998877)
(-3.16108e-05 -1.06979e-05 0.009989)
(-5.46134e-05 -1.15249e-05 0.00999005)
(-8.06743e-05 -1.27395e-05 0.00999266)
(-0.000113394 -1.46297e-05 0.00999707)
(0.000117727 -4.39865e-05 0.00999767)
(8.35053e-05 -3.88878e-05 0.00999339)
(5.66011e-05 -3.52643e-05 0.00999068)
(3.28174e-05 -3.28167e-05 0.00998942)
(1.06935e-05 -3.16027e-05 0.00998904)
(-1.07011e-05 -3.1607e-05 0.00998902)
(-3.28153e-05 -3.28094e-05 0.00998943)
(-5.66024e-05 -3.52641e-05 0.00999065)
(-8.35004e-05 -3.88834e-05 0.00999339)
(-0.000117718 -4.3982e-05 0.0099977)
(0.000124783 -7.46712e-05 0.00999874)
(8.86409e-05 -6.65197e-05 0.00999504)
(6.05328e-05 -6.05259e-05 0.00999226)
(3.52661e-05 -5.66049e-05 0.00999067)
(1.15236e-05 -5.46129e-05 0.00999008)
(-1.15166e-05 -5.4611e-05 0.00999005)
(-3.52652e-05 -5.65981e-05 0.0099907)
(-6.05328e-05 -6.05255e-05 0.00999223)
(-8.86344e-05 -6.65158e-05 0.00999505)
(-0.000124777 -7.46635e-05 0.00999873)
(0.000136584 -0.000108684 0.00999989)
(9.66277e-05 -9.66417e-05 0.00999729)
(6.65213e-05 -8.86361e-05 0.00999502)
(3.88861e-05 -8.35025e-05 0.00999339)
(1.27548e-05 -8.06754e-05 0.00999266)
(-1.27536e-05 -8.06796e-05 0.00999269)
(-3.88822e-05 -8.35018e-05 0.00999341)
(-6.652e-05 -8.86337e-05 0.009995)
(-9.66257e-05 -9.66352e-05 0.00999728)
(-0.000136585 -0.000108687 0.00999995)
(0.000145515 -0.000145518 0.0100011)
(0.000108671 -0.000136573 0.0099999)
(7.46635e-05 -0.000124788 0.00999874)
(4.39899e-05 -0.000117726 0.00999768)
(1.46303e-05 -0.000113392 0.00999708)
(-1.46275e-05 -0.000113388 0.00999704)
(-4.39896e-05 -0.000117718 0.00999769)
(-7.46603e-05 -0.000124778 0.00999873)
(-0.000108678 -0.000136567 0.00999992)
(-0.000145522 -0.000145516 0.0100011)
(0.000198707 0.000198703 0.0103197)
(0.000144001 0.000169969 0.0102898)
(9.98418e-05 0.000166524 0.0102681)
(5.9349e-05 0.000160333 0.0102546)
(1.96041e-05 0.000157711 0.0102476)
(-1.96049e-05 0.000157709 0.0102476)
(-5.93423e-05 0.000160335 0.0102546)
(-9.98375e-05 0.000166522 0.0102681)
(-0.000143997 0.000169962 0.0102898)
(-0.0001987 0.0001987 0.0103197)
(0.000169954 0.000144002 0.0102898)
(0.000130806 0.000130792 0.0102606)
(9.52525e-05 0.000126154 0.0102402)
(5.68512e-05 0.00012241 0.0102271)
(1.90325e-05 0.0001208 0.0102207)
(-1.90379e-05 0.000120799 0.0102207)
(-5.685e-05 0.000122408 0.0102271)
(-9.52587e-05 0.000126149 0.0102402)
(-0.000130804 0.000130788 0.0102606)
(-0.000169959 0.000143996 0.0102898)
(0.000166522 9.98373e-05 0.0102681)
(0.000126147 9.52557e-05 0.0102402)
(9.08098e-05 9.08096e-05 0.0102208)
(5.40449e-05 8.77387e-05 0.0102079)
(1.80448e-05 8.61162e-05 0.0102014)
(-1.80431e-05 8.61189e-05 0.0102014)
(-5.40418e-05 8.77347e-05 0.0102078)
(-9.08091e-05 9.08056e-05 0.0102208)
(-0.00012615 9.52602e-05 0.0102402)
(-0.000166527 9.98401e-05 0.0102681)
(0.000160341 5.93515e-05 0.0102546)
(0.0001224 5.68497e-05 0.0102271)
(8.77384e-05 5.40434e-05 0.0102079)
(5.22172e-05 5.22198e-05 0.0101949)
(1.74137e-05 5.12627e-05 0.0101885)
(-1.74078e-05 5.12565e-05 0.0101885)
(-5.2219e-05 5.22269e-05 0.0101949)
(-8.77422e-05 5.40459e-05 0.0102079)
(-0.000122403 5.68495e-05 0.0102271)
(-0.000160344 5.93368e-05 0.0102546)
(0.000157705 1.96149e-05 0.0102476)
(0.00012079 1.90392e-05 0.0102206)
(8.61134e-05 1.80379e-05 0.0102014)
(5.12598e-05 1.74059e-05 0.0101885)
(1.70722e-05 1.70661e-05 0.010182)
(-1.70647e-05 1.70712e-05 0.010182)
(-5.12568e-05 1.74078e-05 0.0101885)
(-8.61178e-05 1.80343e-05 0.0102015)
(-0.000120806 1.90319e-05 0.0102207)
(-0.000157709 1.96095e-05 0.0102476)
(0.000157699 -1.96116e-05 0.0102476)
(0.000120801 -1.90317e-05 0.0102206)
(8.61159e-05 -1.80334e-05 0.0102014)
(5.12615e-05 -1.74047e-05 0.0101884)
(1.7064e-05 -1.70669e-05 0.010182)
(-1.70652e-05 -1.70527e-05 0.010182)
(-5.12687e-05 -1.74074e-05 0.0101885)
(-8.61126e-05 -1.80366e-05 0.0102015)
(-0.000120805 -1.90427e-05 0.0102207)
(-0.000157709 -1.96175e-05 0.0102476)
(0.00016033 -5.93434e-05 0.0102546)
(0.000122396 -5.68494e-05 0.0102271)
(8.77378e-05 -5.4046e-05 0.0102079)
(5.22232e-05 -5.22211e-05 0.0101949)
(1.74062e-05 -5.12674e-05 0.0101885)
(-1.74058e-05 -5.1258e-05 0.0101885)
(-5.22237e-05 -5.22325e-05 0.0101949)
(-8.77444e-05 -5.4048e-05 0.0102079)
(-0.000122403 -5.68554e-05 0.0102271)
(-0.000160341 -5.93505e-05 0.0102546)
(0.000166518 -9.98454e-05 0.0102681)
(0.000126135 -9.52605e-05 0.0102402)
(9.08126e-05 -9.08095e-05 0.0102208)
(5.40412e-05 -8.77347e-05 0.0102079)
(1.80385e-05 -8.61122e-05 0.0102014)
(-1.80387e-05 -8.6117e-05 0.0102015)
(-5.4048e-05 -8.77371e-05 0.0102079)
(-9.08154e-05 -9.08103e-05 0.0102208)
(-0.000126151 -9.52643e-05 0.0102402)
(-0.000166532 -9.98471e-05 0.0102681)
(0.000169956 -0.000143996 0.0102898)
(0.000130802 -0.000130791 0.0102606)
(9.52512e-05 -0.00012615 0.0102402)
(5.68568e-05 -0.000122404 0.0102271)
(1.90272e-05 -0.000120801 0.0102207)
(-1.90355e-05 -0.000120803 0.0102207)
(-5.68611e-05 -0.000122404 0.0102271)
(-9.52641e-05 -0.000126156 0.0102402)
(-0.000130814 -0.000130791 0.0102606)
(-0.000169967 -0.000144002 0.0102898)
(0.000198698 -0.000198707 0.0103197)
(0.000144012 -0.000169972 0.0102898)
(9.98454e-05 -0.000166522 0.0102681)
(5.93356e-05 -0.000160333 0.0102546)
(1.96128e-05 -0.000157708 0.0102476)
(-1.96126e-05 -0.000157708 0.0102476)
(-5.93471e-05 -0.000160336 0.0102546)
(-9.98497e-05 -0.000166524 0.0102681)
(-0.000144015 -0.00016997 0.0102898)
(-0.000198705 -0.000198707 0.0103197)
(0.000222108 0.000222115 0.0105626)
(0.000165926 0.000192412 0.0105231)
(0.000116157 0.000193376 0.0104934)
(6.9701e-05 0.000186782 0.0104741)
(2.27411e-05 0.000185299 0.010464)
(-2.27361e-05 0.000185301 0.010464)
(-6.96953e-05 0.000186776 0.0104741)
(-0.000116162 0.00019337 0.0104934)
(-0.000165925 0.000192409 0.0105231)
(-0.000222092 0.000222108 0.0105627)
(0.000192415 0.000165935 0.0105231)
(0.000153008 0.000153009 0.0104825)
(0.000111396 0.000149487 0.0104509)
(6.73098e-05 0.000145494 0.0104305)
(2.25316e-05 0.000144317 0.0104203)
(-2.25338e-05 0.000144314 0.0104203)
(-6.73155e-05 0.000145488 0.0104305)
(-0.00011139 0.000149498 0.0104509)
(-0.000153007 0.000153013 0.0104826)
(-0.000192419 0.00016593 0.0105231)
(0.000193376 0.000116154 0.0104934)
(0.000149494 0.000111401 0.0104509)
(0.000108268 0.000108269 0.0104195)
(6.48458e-05 0.000105309 0.0103994)
(2.17102e-05 0.000103922 0.0103896)
(-2.17106e-05 0.000103921 0.0103896)
(-6.48512e-05 0.000105313 0.0103994)
(-0.000108266 0.000108267 0.0104195)
(-0.000149492 0.000111397 0.0104509)
(-0.00019337 0.00011616 0.0104934)
(0.000186763 6.96995e-05 0.0104741)
(0.000145501 6.73082e-05 0.0104305)
(0.000105304 6.48444e-05 0.0103994)
(6.3145e-05 6.31377e-05 0.0103797)
(2.11824e-05 6.23006e-05 0.0103703)
(-2.11921e-05 6.22965e-05 0.0103703)
(-6.31443e-05 6.31384e-05 0.0103797)
(-0.000105309 6.48477e-05 0.0103994)
(-0.000145499 6.73152e-05 0.0104305)
(-0.000186772 6.97059e-05 0.0104741)
(0.000185311 2.2741e-05 0.010464)
(0.000144309 2.25312e-05 0.0104203)
(0.000103927 2.17174e-05 0.0103895)
(6.23002e-05 2.11888e-05 0.0103703)
(2.0867e-05 2.08639e-05 0.0103611)
(-2.08731e-05 2.08671e-05 0.0103611)
(-6.23004e-05 2.11884e-05 0.0103703)
(-0.000103922 2.17173e-05 0.0103896)
(-0.000144321 2.2531e-05 0.0104203)
(-0.000185299 2.27333e-05 0.010464)
(0.0001853 -2.2738e-05 0.010464)
(0.000144319 -2.25374e-05 0.0104203)
(0.000103919 -2.17223e-05 0.0103895)
(6.23025e-05 -2.1196e-05 0.0103703)
(2.08605e-05 -2.08689e-05 0.0103611)
(-2.08667e-05 -2.08665e-05 0.0103611)
(-6.23109e-05 -2.11849e-05 0.0103703)
(-0.000103921 -2.17181e-05 0.0103896)
(-0.000144321 -2.25292e-05 0.0104203)
(-0.0001853 -2.27308e-05 0.010464)
(0.00018679 -6.97029e-05 0.0104741)
(0.000145496 -6.73075e-05 0.0104305)
(0.000105308 -6.48435e-05 0.0103994)
(6.31423e-05 -6.31429e-05 0.0103796)
(2.11917e-05 -6.23018e-05 0.0103703)
(-2.11886e-05 -6.23036e-05 0.0103703)
(-6.31424e-05 -6.31432e-05 0.0103797)
(-0.000105312 -6.4846e-05 0.0103994)
(-0.000145488 -6.72995e-05 0.0104305)
(-0.000186787 -6.96956e-05 0.0104741)
(0.000193377 -0.000116146 0.0104934)
(0.000149493 -0.000111388 0.0104509)
(0.000108269 -0.000108271 0.0104195)
(6.48513e-05 -0.000105306 0.0103994)
(2.17205e-05 -0.000103928 0.0103895)
(-2.17218e-05 -0.000103923 0.0103895)
(-6.48505e-05 -0.000105308 0.0103994)
(-0.000108271 -0.000108265 0.0104195)
(-0.000149492 -0.000111391 0.0104509)
(-0.000193375 -0.000116154 0.0104934)
(0.000192422 -0.000165922 0.0105231)
(0.000153011 -0.000153008 0.0104826)
(0.000111396 -0.000149484 0.0104509)
(6.73108e-05 -0.000145491 0.0104305)
(2.25322e-05 -0.000144316 0.0104203)
(-2.25269e-05 -0.000144317 0.0104203)
(-6.7308e-05 -0.00014549 0.0104305)
(-0.000111395 -0.000149494 0.0104509)
(-0.000153008 -0.000153002 0.0104826)
(-0.000192412 -0.000165925 0.0105231)
(0.000222117 -0.000222099 0.0105626)
(0.000165917 -0.000192407 0.0105231)
(0.000116163 -0.000193367 0.0104934)
(6.9701e-05 -0.000186775 0.0104741)
(2.27337e-05 -0.0001853 0.010464)
(-2.27254e-05 -0.000185297 0.010464)
(-6.96988e-05 -0.000186782 0.0104742)
(-0.000116158 -0.000193376 0.0104934)
(-0.000165913 -0.000192408 0.0105231)
(-0.000222109 -0.000222105 0.0105626)
(0.000217403 0.00021739 0.0108065)
(0.00016599 0.000194237 0.0107624)
(0.000116889 0.000198736 0.0107311)
(7.06572e-05 0.000193866 0.0107109)
(2.27441e-05 0.000193903 0.0107006)
(-2.27514e-05 0.000193903 0.0107006)
(-7.06589e-05 0.000193866 0.010711)
(-0.000116884 0.000198733 0.010731)
(-0.000165994 0.000194238 0.0107624)
(-0.000217387 0.000217397 0.0108064)
(0.000194231 0.000166 0.0107624)
(0.000155862 0.000155855 0.0107216)
(0.000112952 0.000154746 0.0106906)
(6.88716e-05 0.000151748 0.0106703)
(2.28548e-05 0.000151394 0.0106599)
(-2.28542e-05 0.000151397 0.0106599)
(-6.88679e-05 0.000151753 0.0106703)
(-0.000112953 0.000154751 0.0106906)
(-0.000155855 0.000155853 0.0107216)
(-0.000194235 0.000166004 0.0107623)
(0.000198742 0.00011688 0.0107311)
(0.00015475 0.000112952 0.0106906)
(0.000112361 0.000112364 0.0106601)
(6.75497e-05 0.000110273 0.0106397)
(2.26051e-05 0.000109644 0.0106292)
(-2.25961e-05 0.000109644 0.0106292)
(-6.75481e-05 0.000110274 0.0106397)
(-0.000112356 0.000112361 0.0106601)
(-0.000154748 0.000112955 0.0106906)
(-0.00019874 0.000116875 0.010731)
(0.000193872 7.06586e-05 0.010711)
(0.000151747 6.88638e-05 0.0106703)
(0.000110264 6.75567e-05 0.0106397)
(6.63686e-05 6.63619e-05 0.0106189)
(2.23061e-05 6.58966e-05 0.0106083)
(-2.22965e-05 6.59024e-05 0.0106083)
(-6.63614e-05 6.63607e-05 0.0106188)
(-0.000110269 6.75573e-05 0.0106397)
(-0.000151746 6.88668e-05 0.0106703)
(-0.000193867 7.06635e-05 0.0107109)
(0.000193905 2.27413e-05 0.0107006)
(0.000151401 2.28611e-05 0.0106598)
(0.00010964 2.26012e-05 0.0106292)
(6.58938e-05 2.2295e-05 0.0106083)
(2.21369e-05 2.21246e-05 0.0105977)
(-2.21248e-05 2.21336e-05 0.0105977)
(-6.58948e-05 2.22978e-05 0.0106083)
(-0.000109641 2.26016e-05 0.0106292)
(-0.000151395 2.28592e-05 0.0106599)
(-0.000193899 2.27458e-05 0.0107006)
(0.000193893 -2.2745e-05 0.0107006)
(0.000151403 -2.28516e-05 0.0106598)
(0.000109645 -2.25958e-05 0.0106292)
(6.58988e-05 -2.22917e-05 0.0106083)
(2.21282e-05 -2.21268e-05 0.0105977)
(-2.21312e-05 -2.21218e-05 0.0105977)
(-6.58914e-05 -2.22918e-05 0.0106083)
(-0.000109641 -2.25987e-05 0.0106292)
(-0.000151391 -2.28519e-05 0.0106599)
(-0.000193893 -2.27513e-05 0.0107006)
(0.000193862 -7.06683e-05 0.0107109)
(0.000151755 -6.88666e-05 0.0106703)
(0.000110267 -6.75542e-05 0.0106397)
(6.63621e-05 -6.63555e-05 0.0106189)
(2.22961e-05 -6.5898e-05 0.0106083)
(-2.22935e-05 -6.58954e-05 0.0106083)
(-6.63525e-05 -6.6356e-05 0.0106189)
(-0.000110261 -6.75452e-05 0.0106397)
(-0.000151754 -6.88645e-05 0.0106704)
(-0.000193863 -7.06653e-05 0.0107109)
(0.000198736 -0.000116882 0.0107311)
(0.000154742 -0.000112956 0.0106906)
(0.000112364 -0.00011236 0.0106601)
(6.75485e-05 -0.00011027 0.0106397)
(2.26067e-05 -0.00010964 0.0106292)
(-2.25974e-05 -0.000109638 0.0106292)
(-6.75438e-05 -0.000110266 0.0106396)
(-0.00011236 -0.000112361 0.0106601)
(-0.000154743 -0.00011296 0.0106906)
(-0.000198744 -0.000116878 0.0107311)
(0.000194226 -0.000166003 0.0107624)
(0.000155857 -0.00015585 0.0107216)
(0.000112952 -0.000154758 0.0106906)
(6.88682e-05 -0.000151748 0.0106703)
(2.28529e-05 -0.000151395 0.0106599)
(-2.28564e-05 -0.000151401 0.0106598)
(-6.8863e-05 -0.000151755 0.0106703)
(-0.000112949 -0.000154756 0.0106906)
(-0.000155862 -0.000155856 0.0107216)
(-0.000194231 -0.000165992 0.0107624)
(0.000217389 -0.000217402 0.0108064)
(0.000165999 -0.000194241 0.0107624)
(0.000116878 -0.000198745 0.010731)
(7.06596e-05 -0.000193869 0.0107109)
(2.27476e-05 -0.000193909 0.0107006)
(-2.2743e-05 -0.00019389 0.0107006)
(-7.06551e-05 -0.000193867 0.0107109)
(-0.000116881 -0.000198738 0.010731)
(-0.000165999 -0.000194241 0.0107623)
(-0.000217405 -0.000217394 0.0108064)
(0.000195977 0.000195976 0.0110504)
(0.000152556 0.000182518 0.0109998)
(0.000108028 0.000189156 0.0109623)
(6.56221e-05 0.000186906 0.0109371)
(2.09023e-05 0.000188178 0.0109244)
(-2.08949e-05 0.000188176 0.0109244)
(-6.56219e-05 0.000186904 0.0109371)
(-0.000108032 0.000189155 0.0109623)
(-0.000152553 0.000182518 0.0109998)
(-0.00019598 0.000195992 0.0110504)
(0.000182514 0.000152559 0.0109998)
(0.000146303 0.000146296 0.0109486)
(0.000105262 0.000147487 0.0109096)
(6.44525e-05 0.000145853 0.0108839)
(2.11421e-05 0.000146286 0.0108709)
(-2.11502e-05 0.000146285 0.0108709)
(-6.44459e-05 0.00014586 0.0108839)
(-0.000105264 0.000147507 0.0109096)
(-0.000146295 0.000146299 0.0109487)
(-0.000182514 0.000152559 0.0109998)
(0.000189157 0.000108036 0.0109623)
(0.0001475 0.000105262 0.0109096)
(0.000106962 0.000106969 0.0108704)
(6.43625e-05 0.000105925 0.0108449)
(2.14558e-05 0.000106086 0.0108323)
(-2.14618e-05 0.00010608 0.0108323)
(-6.43645e-05 0.000105924 0.0108449)
(-0.000106964 0.00010696 0.0108704)
(-0.000147492 0.000105268 0.0109096)
(-0.000189163 0.000108032 0.0109623)
(0.000186891 6.56223e-05 0.0109371)
(0.000145868 6.44421e-05 0.0108839)
(0.000105919 6.43683e-05 0.0108449)
(6.37698e-05 6.37619e-05 0.0108198)
(2.13986e-05 6.37096e-05 0.0108075)
(-2.13967e-05 6.37037e-05 0.0108075)
(-6.3768e-05 6.37569e-05 0.0108198)
(-0.000105927 6.43715e-05 0.0108449)
(-0.000145871 6.44539e-05 0.0108839)
(-0.000186901 6.56265e-05 0.0109371)
(0.000188185 2.09065e-05 0.0109244)
(0.000146282 2.11427e-05 0.0108709)
(0.000106081 2.14547e-05 0.0108323)
(6.37156e-05 2.13974e-05 0.0108075)
(2.14007e-05 2.13967e-05 0.0107954)
(-2.14013e-05 2.13995e-05 0.0107954)
(-6.37115e-05 2.14079e-05 0.0108075)
(-0.000106092 2.14564e-05 0.0108323)
(-0.000146286 2.11421e-05 0.0108709)
(-0.000188184 2.0895e-05 0.0109244)
(0.000188181 -2.08944e-05 0.0109244)
(0.000146289 -2.11385e-05 0.0108709)
(0.000106076 -2.1458e-05 0.0108323)
(6.37064e-05 -2.14044e-05 0.0108074)
(2.13968e-05 -2.14e-05 0.0107954)
(-2.14024e-05 -2.14021e-05 0.0107954)
(-6.37177e-05 -2.1413e-05 0.0108075)
(-0.000106089 -2.14612e-05 0.0108323)
(-0.000146287 -2.11421e-05 0.0108709)
(-0.000188185 -2.09009e-05 0.0109244)
(0.000186907 -6.56227e-05 0.0109371)
(0.000145851 -6.44523e-05 0.0108839)
(0.000105919 -6.43595e-05 0.0108449)
(6.37674e-05 -6.37552e-05 0.0108198)
(2.1403e-05 -6.37205e-05 0.0108075)
(-2.14025e-05 -6.37079e-05 0.0108075)
(-6.37645e-05 -6.3756e-05 0.0108198)
(-0.00010593 -6.43664e-05 0.0108449)
(-0.000145864 -6.44498e-05 0.0108839)
(-0.000186909 -6.56175e-05 0.0109371)
(0.000189163 -0.000108029 0.0109623)
(0.000147496 -0.000105256 0.0109096)
(0.000106977 -0.00010697 0.0108704)
(6.43596e-05 -0.000105926 0.0108449)
(2.14568e-05 -0.000106081 0.0108323)
(-2.14696e-05 -0.000106085 0.0108323)
(-6.43589e-05 -0.000105929 0.0108449)
(-0.000106977 -0.000106962 0.0108704)
(-0.000147489 -0.000105263 0.0109096)
(-0.000189164 -0.00010803 0.0109623)
(0.000182525 -0.000152549 0.0109998)
(0.000146302 -0.000146293 0.0109487)
(0.000105265 -0.000147488 0.0109096)
(6.44525e-05 -0.000145857 0.0108839)
(2.11424e-05 -0.000146278 0.0108709)
(-2.11433e-05 -0.000146286 0.0108709)
(-6.44502e-05 -0.000145861 0.0108839)
(-0.000105267 -0.000147502 0.0109096)
(-0.000146298 -0.000146292 0.0109487)
(-0.000182518 -0.000152549 0.0109998)
(0.000195991 -0.000195976 0.0110504)
(0.000152551 -0.000182513 0.0109998)
(0.000108041 -0.000189153 0.0109624)
(6.56209e-05 -0.000186904 0.0109371)
(2.09108e-05 -0.00018818 0.0109244)
(-2.09083e-05 -0.000188174 0.0109244)
(-6.56195e-05 -0.000186902 0.0109371)
(-0.00010804 -0.000189152 0.0109623)
(-0.000152555 -0.000182524 0.0109998)
(-0.000195987 -0.000195984 0.0110504)
(0.000169331 0.000169328 0.0112566)
(0.000133626 0.000165582 0.0112107)
(9.52618e-05 0.000173507 0.0111764)
(5.79956e-05 0.00017412 0.011153)
(1.83963e-05 0.000176346 0.0111414)
(-1.83989e-05 0.00017635 0.0111415)
(-5.79933e-05 0.000174118 0.011153)
(-9.52657e-05 0.000173505 0.0111764)
(-0.000133632 0.00016558 0.0112107)
(-0.000169328 0.000169342 0.0112566)
(0.000165573 0.000133627 0.0112107)
(0.000131739 0.000131727 0.0111644)
(9.4176e-05 0.000135053 0.0111299)
(5.7695e-05 0.000135093 0.0111066)
(1.87368e-05 0.00013622 0.0110948)
(-1.87403e-05 0.000136219 0.0110947)
(-5.76929e-05 0.000135094 0.0111066)
(-9.41835e-05 0.000135051 0.0111299)
(-0.000131732 0.00013172 0.0111644)
(-0.000165574 0.00013363 0.0112107)
(0.000173503 9.52634e-05 0.0111764)
(0.000135058 9.41758e-05 0.0111299)
(9.77921e-05 9.7795e-05 0.0110951)
(5.88118e-05 9.79446e-05 0.0110715)
(1.95587e-05 9.88172e-05 0.0110594)
(-1.95517e-05 9.88187e-05 0.0110594)
(-5.88169e-05 9.79331e-05 0.0110714)
(-9.7785e-05 9.77988e-05 0.0110951)
(-0.000135056 9.41841e-05 0.0111299)
(-0.000173508 9.52547e-05 0.0111764)
(0.000174115 5.80038e-05 0.011153)
(0.000135096 5.76941e-05 0.0111066)
(9.79335e-05 5.88203e-05 0.0110714)
(5.88705e-05 5.88744e-05 0.0110475)
(1.97218e-05 5.92033e-05 0.0110353)
(-1.97101e-05 5.92101e-05 0.0110353)
(-5.88717e-05 5.88706e-05 0.0110475)
(-9.79299e-05 5.88158e-05 0.0110714)
(-0.000135103 5.76917e-05 0.0111066)
(-0.000174117 5.79986e-05 0.011153)
(0.000176356 1.83945e-05 0.0111415)
(0.000136215 1.87391e-05 0.0110947)
(9.88213e-05 1.95506e-05 0.0110594)
(5.91992e-05 1.97166e-05 0.0110353)
(1.98913e-05 1.98905e-05 0.011023)
(-1.98801e-05 1.99008e-05 0.011023)
(-5.92087e-05 1.97281e-05 0.0110353)
(-9.88175e-05 1.95553e-05 0.0110594)
(-0.000136216 1.87474e-05 0.0110948)
(-0.000176351 1.84074e-05 0.0111414)
(0.000176345 -1.84062e-05 0.0111415)
(0.000136217 -1.87348e-05 0.0110947)
(9.88204e-05 -1.95515e-05 0.0110594)
(5.92067e-05 -1.97142e-05 0.0110353)
(1.98918e-05 -1.98846e-05 0.011023)
(-1.98923e-05 -1.988e-05 0.011023)
(-5.91963e-05 -1.97085e-05 0.0110353)
(-9.88264e-05 -1.95397e-05 0.0110594)
(-0.000136208 -1.87422e-05 0.0110947)
(-0.000176348 -1.8395e-05 0.0111414)
(0.000174115 -5.80011e-05 0.011153)
(0.000135095 -5.76869e-05 0.0111066)
(9.79318e-05 -5.88088e-05 0.0110715)
(5.88769e-05 -5.88625e-05 0.0110475)
(1.972e-05 -5.92079e-05 0.0110353)
(-1.97141e-05 -5.92039e-05 0.0110353)
(-5.88729e-05 -5.88682e-05 0.0110475)
(-9.79324e-05 -5.88142e-05 0.0110714)
(-0.000135091 -5.76876e-05 0.0111066)
(-0.000174109 -5.79992e-05 0.011153)
(0.000173501 -9.52575e-05 0.0111764)
(0.000135041 -9.41803e-05 0.0111299)
(9.78026e-05 -9.77935e-05 0.0110951)
(5.88151e-05 -9.79358e-05 0.0110715)
(1.95595e-05 -9.8814e-05 0.0110594)
(-1.95607e-05 -9.88089e-05 0.0110594)
(-5.88114e-05 -9.79323e-05 0.0110714)
(-9.77947e-05 -9.77912e-05 0.0110951)
(-0.000135034 -9.41737e-05 0.0111299)
(-0.000173497 -9.52509e-05 0.0111764)
(0.000165576 -0.000133631 0.0112107)
(0.000131731 -0.000131725 0.0111644)
(9.41827e-05 -0.000135055 0.0111299)
(5.76907e-05 -0.000135086 0.0111066)
(1.87374e-05 -0.000136205 0.0110947)
(-1.8739e-05 -0.000136222 0.0110947)
(-5.76904e-05 -0.000135086 0.0111066)
(-9.4178e-05 -0.00013505 0.0111299)
(-0.000131724 -0.000131721 0.0111644)
(-0.000165571 -0.000133618 0.0112107)
(0.000169328 -0.000169339 0.0112566)
(0.000133629 -0.000165579 0.0112107)
(9.52561e-05 -0.000173503 0.0111763)
(5.79917e-05 -0.000174124 0.011153)
(1.84069e-05 -0.000176347 0.0111415)
(-1.84036e-05 -0.000176338 0.0111414)
(-5.79869e-05 -0.000174115 0.011153)
(-9.52571e-05 -0.0001735 0.0111764)
(-0.000133623 -0.000165569 0.0112107)
(-0.000169334 -0.000169333 0.0112566)
(0.000144258 0.000144265 0.0114433)
(0.000114726 0.000147242 0.0113987)
(8.22264e-05 0.000155388 0.0113618)
(4.99696e-05 0.000158153 0.0113359)
(1.58812e-05 0.000160873 0.0113232)
(-1.58801e-05 0.000160871 0.0113231)
(-4.9963e-05 0.000158149 0.0113359)
(-8.22318e-05 0.000155381 0.0113618)
(-0.000114723 0.000147249 0.0113987)
(-0.000144251 0.000144268 0.0114433)
(0.000147238 0.000114733 0.0113986)
(0.000115808 0.000115801 0.0113466)
(8.23915e-05 0.000120372 0.0113071)
(5.02715e-05 0.000121675 0.0112805)
(1.62306e-05 0.000123238 0.0112674)
(-1.62365e-05 0.000123238 0.0112674)
(-5.02722e-05 0.000121691 0.0112805)
(-8.23845e-05 0.000120372 0.0113071)
(-0.000115796 0.000115809 0.0113465)
(-0.000147232 0.000114733 0.0113987)
(0.000155374 8.22423e-05 0.0113618)
(0.000120384 8.23981e-05 0.0113071)
(8.70189e-05 8.70321e-05 0.0112667)
(5.22036e-05 8.80844e-05 0.0112401)
(1.73351e-05 8.94191e-05 0.011227)
(-1.73435e-05 8.9406e-05 0.011227)
(-5.22066e-05 8.80773e-05 0.0112401)
(-8.70208e-05 8.70248e-05 0.0112667)
(-0.000120373 8.23982e-05 0.0113071)
(-0.000155373 8.22347e-05 0.0113618)
(0.000158144 4.99681e-05 0.0113359)
(0.000121696 5.02702e-05 0.0112805)
(8.80654e-05 5.22067e-05 0.0112401)
(5.27696e-05 5.27693e-05 0.0112138)
(1.76485e-05 5.33682e-05 0.011201)
(-1.76446e-05 5.33804e-05 0.011201)
(-5.27797e-05 5.27669e-05 0.0112138)
(-8.80738e-05 5.22077e-05 0.0112401)
(-0.000121691 5.02771e-05 0.0112805)
(-0.000158143 4.99666e-05 0.0113359)
(0.000160865 1.58824e-05 0.0113232)
(0.00012323 1.62328e-05 0.0112674)
(8.94193e-05 1.73433e-05 0.011227)
(5.3379e-05 1.76454e-05 0.011201)
(1.79459e-05 1.7946e-05 0.0111882)
(-1.79521e-05 1.7947e-05 0.0111883)
(-5.33775e-05 1.76481e-05 0.011201)
(-8.94243e-05 1.73417e-05 0.011227)
(-0.00012324 1.62276e-05 0.0112674)
(-0.000160868 1.5879e-05 0.0113231)
(0.000160869 -1.58819e-05 0.0113232)
(0.000123238 -1.62314e-05 0.0112674)
(8.94046e-05 -1.73454e-05 0.011227)
(5.33677e-05 -1.76525e-05 0.0112009)
(1.79358e-05 -1.79464e-05 0.0111883)
(-1.79479e-05 -1.79482e-05 0.0111882)
(-5.33803e-05 -1.76529e-05 0.0112009)
(-8.9423e-05 -1.73402e-05 0.011227)
(-0.000123232 -1.62329e-05 0.0112674)
(-0.000160873 -1.58857e-05 0.0113232)
(0.000158148 -4.99694e-05 0.0113359)
(0.000121676 -5.02664e-05 0.0112805)
(8.80699e-05 -5.22092e-05 0.0112401)
(5.27786e-05 -5.27685e-05 0.0112138)
(1.76467e-05 -5.33861e-05 0.011201)
(-1.76583e-05 -5.33793e-05 0.0112009)
(-5.27782e-05 -5.27672e-05 0.0112138)
(-8.8076e-05 -5.22086e-05 0.0112401)
(-0.000121684 -5.02717e-05 0.0112805)
(-0.000158151 -4.99716e-05 0.0113359)
(0.000155378 -8.22245e-05 0.0113618)
(0.00012037 -8.23972e-05 0.0113071)
(8.70296e-05 -8.70309e-05 0.0112667)
(5.22086e-05 -8.80893e-05 0.0112401)
(1.73443e-05 -8.94165e-05 0.0112271)
(-1.73563e-05 -8.94116e-05 0.0112271)
(-5.22049e-05 -8.80758e-05 0.0112401)
(-8.7035e-05 -8.70284e-05 0.0112667)
(-0.000120369 -8.23926e-05 0.0113071)
(-0.000155372 -8.2228e-05 0.0113618)
(0.000147241 -0.00011473 0.0113987)
(0.000115806 -0.000115805 0.0113465)
(8.23964e-05 -0.00012037 0.0113071)
(5.02698e-05 -0.000121677 0.0112805)
(1.62313e-05 -0.000123235 0.0112674)
(-1.62315e-05 -0.000123241 0.0112674)
(-5.02743e-05 -0.000121693 0.0112805)
(-8.2401e-05 -0.000120381 0.0113071)
(-0.000115804 -0.000115802 0.0113465)
(-0.000147245 -0.000114728 0.0113987)
(0.000144261 -0.000144255 0.0114433)
(0.00011473 -0.000147236 0.0113987)
(8.22382e-05 -0.000155374 0.0113618)
(4.99515e-05 -0.000158145 0.0113359)
(1.58955e-05 -0.000160873 0.0113232)
(-1.58899e-05 -0.000160865 0.0113231)
(-4.99558e-05 -0.00015815 0.0113359)
(-8.22386e-05 -0.000155382 0.0113618)
(-0.000114728 -0.000147236 0.0113987)
(-0.000144267 -0.000144262 0.0114433)
(0.00012392 0.000123918 0.011596)
(9.90397e-05 0.000130522 0.0115623)
(7.14384e-05 0.000138114 0.0115307)
(4.32225e-05 0.000142045 0.0115081)
(1.38458e-05 0.000144899 0.011497)
(-1.38573e-05 0.000144902 0.0114969)
(-4.32256e-05 0.000142043 0.0115081)
(-7.1444e-05 0.000138111 0.0115307)
(-9.90505e-05 0.000130519 0.0115623)
(-0.000123925 0.000123928 0.011596)
(0.000130518 9.90457e-05 0.0115623)
(0.000101623 0.000101614 0.0115183)
(7.22213e-05 0.000106534 0.0114846)
(4.37789e-05 0.000108535 0.0114615)
(1.41194e-05 0.00011024 0.0114499)
(-1.41296e-05 0.00011023 0.01145)
(-4.37828e-05 0.000108544 0.0114614)
(-7.22196e-05 0.000106529 0.0114847)
(-0.000101625 0.000101611 0.0115183)
(-0.000130522 9.90362e-05 0.0115623)
(0.000138116 7.14354e-05 0.0115307)
(0.000106529 7.2226e-05 0.0114846)
(7.70647e-05 7.70631e-05 0.0114499)
(4.60742e-05 7.8618e-05 0.0114262)
(1.5336e-05 8.01235e-05 0.0114143)
(-1.53414e-05 8.01241e-05 0.0114143)
(-4.60829e-05 7.86093e-05 0.0114262)
(-7.70625e-05 7.70667e-05 0.0114499)
(-0.000106537 7.22212e-05 0.0114846)
(-0.000138117 7.1433e-05 0.0115307)
(0.000142047 4.32262e-05 0.0115081)
(0.000108542 4.37844e-05 0.0114615)
(7.86033e-05 4.60861e-05 0.0114262)
(4.69192e-05 4.69139e-05 0.0114021)
(1.57001e-05 4.76447e-05 0.0113899)
(-1.5694e-05 4.7647e-05 0.0113899)
(-4.69272e-05 4.69185e-05 0.0114021)
(-7.86067e-05 4.60826e-05 0.0114262)
(-0.000108543 4.37878e-05 0.0114615)
(-0.000142051 4.32359e-05 0.0115081)
(0.000144902 1.385e-05 0.0114969)
(0.00011023 1.41346e-05 0.0114499)
(8.01263e-05 1.53426e-05 0.0114143)
(4.76444e-05 1.57141e-05 0.0113899)
(1.60543e-05 1.60494e-05 0.0113776)
(-1.60529e-05 1.60639e-05 0.0113776)
(-4.7638e-05 1.57094e-05 0.0113899)
(-8.01343e-05 1.5345e-05 0.0114143)
(-0.000110237 1.41256e-05 0.0114499)
(-0.000144905 1.38438e-05 0.0114969)
(0.000144899 -1.38497e-05 0.011497)
(0.000110235 -1.41271e-05 0.01145)
(8.0125e-05 -1.53344e-05 0.0114143)
(4.76431e-05 -1.57011e-05 0.0113899)
(1.60475e-05 -1.60565e-05 0.0113776)
(-1.60611e-05 -1.60376e-05 0.0113776)
(-4.76448e-05 -1.5698e-05 0.0113899)
(-8.0136e-05 -1.53337e-05 0.0114143)
(-0.000110225 -1.41251e-05 0.0114499)
(-0.000144903 -1.38566e-05 0.0114969)
(0.000142044 -4.32364e-05 0.0115081)
(0.000108535 -4.37809e-05 0.0114615)
(7.86084e-05 -4.60782e-05 0.0114262)
(4.69202e-05 -4.6911e-05 0.0114021)
(1.57075e-05 -4.76426e-05 0.0113899)
(-1.57077e-05 -4.76382e-05 0.0113899)
(-4.69233e-05 -4.6911e-05 0.0114021)
(-7.86054e-05 -4.6073e-05 0.0114262)
(-0.000108544 -4.37832e-05 0.0114615)
(-0.000142042 -4.32324e-05 0.0115081)
(0.000138112 -7.14394e-05 0.0115307)
(0.000106523 -7.22256e-05 0.0114846)
(7.70647e-05 -7.70653e-05 0.0114499)
(4.60746e-05 -7.86139e-05 0.0114262)
(1.53348e-05 -8.0123e-05 0.0114143)
(-1.53401e-05 -8.01181e-05 0.0114143)
(-4.60735e-05 -7.86016e-05 0.0114262)
(-7.70606e-05 -7.70616e-05 0.0114499)
(-0.000106529 -7.22245e-05 0.0114846)
(-0.000138116 -7.14325e-05 0.0115307)
(0.000130509 -9.90473e-05 0.0115623)
(0.00010162 -0.000101623 0.0115183)
(7.2224e-05 -0.000106538 0.0114846)
(4.37796e-05 -0.000108525 0.0114614)
(1.41244e-05 -0.00011022 0.0114499)
(-1.41258e-05 -0.000110236 0.0114499)
(-4.37875e-05 -0.000108536 0.0114615)
(-7.22258e-05 -0.000106537 0.0114846)
(-0.000101631 -0.000101618 0.0115183)
(-0.00013052 -9.90349e-05 0.0115623)