/*--------------------------------*- C++ -*----------------------------------*\
| =========                 |                                                 |
| \\      /  F ield         | OpenFOAM: The Open Source CFD Toolbox           |
|  \\    /   O peration     | Version:  2406                                  |
|   \\  /    A nd           | Website:  www.openfoam.com                      |
|    \\/     M anipulation  |                                                 |
\*---------------------------------------------------------------------------*/
FoamFile
{
    version     2.0;
    format      ascii;
    arch        "LSB;label=32;scalar=64";
    class       surfaceScalarField;
    location    "1";
    object      phi;
}
// * * * * * * * * * * * * * * * * * * * * * * * * * * * * * * * * * * * * * //

dimensions      [0 3 -1 0 0 0 0];

oriented        oriented;

internalField   nonuniform List<scalar> 
43700
(
1.80934e-08
1.80919e-08
4.79374e-07
-2.27704e-08
-2.27709e-08
1.34577e-08
1.66177e-08
5.18558e-07
-2.11497e-08
8.92525e-09
1.54135e-08
5.4835e-07
-1.97979e-08
4.47023e-09
1.47263e-08
5.6844e-07
-1.89973e-08
6.13934e-12
1.43151e-08
5.7854e-07
-1.84597e-08
-4.45969e-09
1.43136e-08
5.78543e-07
-1.84582e-08
-8.91848e-09
1.47249e-08
5.68443e-07
-1.89957e-08
-1.3452e-08
1.54123e-08
5.48352e-07
-1.97954e-08
-1.80942e-08
1.66159e-08
5.1856e-07
-2.11472e-08
1.80949e-08
4.79374e-07
-2.27623e-08
-2.27783e-08
1.66197e-08
1.34558e-08
5.18558e-07
-2.11524e-08
1.22667e-08
1.22657e-08
5.54556e-07
8.04202e-09
1.13345e-08
5.81999e-07
3.99913e-09
1.07538e-08
6.00514e-07
6.49418e-12
1.0441e-08
6.09842e-07
-3.98753e-09
1.04393e-08
6.09842e-07
-8.03087e-09
1.07522e-08
6.00516e-07
-1.22599e-08
1.13288e-08
5.82002e-07
-1.66175e-08
1.2261e-08
5.54558e-07
1.34549e-08
5.18559e-07
-2.11532e-08
1.54136e-08
8.9248e-09
5.48348e-07
-1.97971e-08
1.13351e-08
8.03933e-09
5.81999e-07
7.4213e-09
7.41963e-09
6.07698e-07
3.6831e-09
7.01514e-09
6.25039e-07
7.16578e-12
6.80768e-09
6.33779e-07
-3.67099e-09
6.80644e-09
6.33782e-07
-7.41307e-09
7.0131e-09
6.25042e-07
-1.13266e-08
7.41581e-09
6.07701e-07
-1.54081e-08
8.03517e-09
5.82004e-07
8.91818e-09
5.48349e-07
-1.97944e-08
1.47266e-08
4.4707e-09
5.68442e-07
-1.89961e-08
1.07558e-08
3.99994e-09
6.00511e-07
7.01712e-09
3.68251e-09
6.2504e-07
3.46649e-09
3.46633e-09
6.41599e-07
6.10099e-12
3.36042e-09
6.49949e-07
-3.45583e-09
3.35874e-09
6.4995e-07
-7.00875e-09
3.46275e-09
6.416e-07
-1.07476e-08
3.6776e-09
6.25043e-07
-1.47224e-08
3.99598e-09
6.00516e-07
4.46483e-09
5.68445e-07
-1.89961e-08
1.43137e-08
5.25145e-12
5.78542e-07
-1.84607e-08
1.04408e-08
6.63274e-12
6.09842e-07
6.8098e-09
4.81884e-12
6.3378e-07
3.36127e-09
5.27017e-12
6.49951e-07
4.56051e-12
2.96256e-12
6.58103e-07
-3.35263e-09
1.75415e-12
6.58102e-07
-6.80211e-09
1.43385e-12
6.4995e-07
-1.04322e-08
-3.88695e-13
6.33781e-07
-1.43119e-08
-1.86999e-12
6.09845e-07
1.30392e-12
5.78541e-07
-1.84603e-08
1.43141e-08
-4.46325e-09
5.78541e-07
-1.84626e-08
1.04382e-08
-3.98955e-09
6.09844e-07
6.80911e-09
-3.67099e-09
6.33782e-07
3.35934e-09
-3.45601e-09
6.49948e-07
3.78135e-12
-3.35195e-09
6.58102e-07
-3.35274e-09
-3.35205e-09
6.58104e-07
-6.8033e-09
-3.45838e-09
6.49951e-07
-1.04323e-08
-3.67355e-09
6.33782e-07
-1.43087e-08
-3.99527e-09
6.09844e-07
-4.46513e-09
5.78541e-07
-1.84593e-08
1.47273e-08
-8.9217e-09
5.68445e-07
-1.89988e-08
1.07539e-08
-8.03391e-09
6.00516e-07
7.01426e-09
-7.41456e-09
6.25041e-07
3.46306e-09
-7.00744e-09
6.41601e-07
2.80806e-12
-6.8018e-09
6.49949e-07
-3.4583e-09
-6.80254e-09
6.4995e-07
-7.00948e-09
-7.00807e-09
6.41601e-07
-1.07495e-08
-7.41218e-09
6.25041e-07
-1.47203e-08
-8.03487e-09
6.00516e-07
-8.9219e-09
5.68443e-07
-1.89952e-08
1.54138e-08
-1.34574e-08
5.48351e-07
-1.97997e-08
1.13302e-08
-1.226e-08
5.82004e-07
7.41919e-09
-1.13246e-08
6.077e-07
3.6768e-09
-1.07466e-08
6.25042e-07
1.72882e-12
-1.04302e-08
6.33781e-07
-3.67216e-09
-1.04313e-08
6.3378e-07
-7.41392e-09
-1.07485e-08
6.25039e-07
-1.13283e-08
-1.13236e-08
6.07699e-07
-1.54075e-08
-1.22634e-08
5.82e-07
-1.34538e-08
5.48352e-07
-1.97931e-08
1.662e-08
-1.80978e-08
5.18561e-07
-2.11549e-08
1.22616e-08
-1.66186e-08
5.54558e-07
8.03587e-09
-1.54092e-08
5.82003e-07
3.99423e-09
-1.47227e-08
6.00517e-07
5.03479e-13
-1.43102e-08
6.09844e-07
-3.99216e-09
-1.43098e-08
6.09844e-07
-8.02965e-09
-1.47248e-08
6.00514e-07
-1.22637e-08
-1.54064e-08
5.82003e-07
-1.66121e-08
-1.66207e-08
5.54557e-07
-1.80932e-08
5.18558e-07
-2.11503e-08
1.80897e-08
4.79373e-07
-2.27737e-08
-2.27654e-08
1.34495e-08
5.1856e-07
-2.1148e-08
8.91636e-09
5.48351e-07
-1.97916e-08
4.46344e-09
5.68441e-07
-1.89932e-08
1.85666e-13
5.78539e-07
-1.84564e-08
-4.46551e-09
5.78541e-07
-1.84527e-08
-8.91037e-09
5.6844e-07
-1.90008e-08
-1.34577e-08
5.48354e-07
-1.97891e-08
-1.80856e-08
5.18555e-07
-2.11545e-08
4.79378e-07
-2.27657e-08
-2.27694e-08
2.96395e-08
2.96409e-08
4.90539e-07
-3.52189e-08
-3.52289e-08
2.15814e-08
2.48548e-08
5.2993e-07
-2.81666e-08
1.43794e-08
2.29644e-08
5.59842e-07
-2.72529e-08
7.1468e-09
2.14627e-08
5.79982e-07
-2.57728e-08
-1.91346e-11
2.07863e-08
5.90082e-07
-2.5161e-08
-7.18521e-09
2.07872e-08
5.90082e-07
-2.51614e-08
-1.44073e-08
2.14686e-08
5.79976e-07
-2.57762e-08
-2.16011e-08
2.29694e-08
5.59835e-07
-2.72554e-08
-2.96508e-08
2.48606e-08
5.29924e-07
-2.81742e-08
2.96462e-08
4.90533e-07
-3.52297e-08
-3.52264e-08
2.48526e-08
2.15829e-08
5.29931e-07
-2.81661e-08
1.9118e-08
1.91185e-08
5.6603e-07
1.30402e-08
1.76111e-08
5.93431e-07
6.57115e-09
1.65489e-08
6.119e-07
-1.87089e-11
1.6029e-08
6.2119e-07
-6.60565e-09
1.60316e-08
6.21187e-07
-1.30705e-08
1.6553e-08
6.11896e-07
-1.91381e-08
1.76183e-08
5.93423e-07
-2.48654e-08
1.9126e-08
5.66021e-07
2.15924e-08
5.29926e-07
-2.81739e-08
2.29636e-08
1.43794e-08
5.59841e-07
-2.725e-08
1.76103e-08
1.30407e-08
5.9343e-07
1.1952e-08
1.19538e-08
6.19012e-07
6.02595e-09
1.12461e-08
6.36267e-07
-1.70708e-11
1.08928e-08
6.44962e-07
-6.0588e-09
1.08962e-08
6.44961e-07
-1.19799e-08
1.1253e-08
6.36264e-07
-1.76304e-08
1.19643e-08
6.19005e-07
-2.29748e-08
1.30526e-08
5.93424e-07
1.4391e-08
5.59836e-07
-2.72583e-08
2.14621e-08
7.15058e-09
5.79981e-07
-2.57728e-08
1.65473e-08
6.57228e-09
6.11898e-07
1.12446e-08
6.02852e-09
6.36267e-07
5.68236e-09
5.68274e-09
6.52727e-07
-1.3818e-11
5.50644e-09
6.61032e-07
-5.70997e-09
5.50905e-09
6.61032e-07
-1.12696e-08
5.68901e-09
6.52724e-07
-1.65651e-08
6.03956e-09
6.36263e-07
-2.14725e-08
6.58649e-09
6.11893e-07
7.16648e-09
5.79976e-07
-2.57798e-08
2.07845e-08
-1.69047e-11
5.90083e-07
-2.51572e-08
1.60302e-08
-1.50762e-11
6.21188e-07
1.08901e-08
-1.61138e-11
6.44965e-07
5.50508e-09
-1.41604e-11
6.61033e-07
-1.15134e-11
-1.21574e-11
6.69141e-07
-5.5291e-09
-9.81175e-12
6.6914e-07
-1.09103e-08
-7.60744e-12
6.61032e-07
-1.60445e-08
-6.4267e-12
6.44961e-07
-2.07939e-08
-3.45066e-12
6.21185e-07
-1.28424e-12
5.9008e-07
-2.51627e-08
2.07856e-08
-7.18253e-09
5.90082e-07
-2.51576e-08
1.60305e-08
-6.60418e-09
6.21189e-07
1.0893e-08
-6.05891e-09
6.44965e-07
5.50668e-09
-5.71148e-09
6.61032e-07
-1.05568e-11
-5.53223e-09
6.6914e-07
-5.52627e-09
-5.52911e-09
6.69141e-07
-1.09102e-08
-5.70615e-09
6.6103e-07
-1.60417e-08
-6.04991e-09
6.44962e-07
-2.07928e-08
-6.59332e-09
6.21186e-07
-7.16966e-09
5.90081e-07
-2.51627e-08
2.14627e-08
-1.44063e-08
5.79978e-07
-2.57724e-08
1.65499e-08
-1.30715e-08
6.11899e-07
1.12494e-08
-1.19834e-08
6.36267e-07
5.68657e-09
-1.12724e-08
6.52726e-07
-7.66098e-12
-1.09147e-08
6.6103e-07
-5.70311e-09
-1.09132e-08
6.6103e-07
-1.12634e-08
-1.12689e-08
6.52723e-07
-1.65595e-08
-1.19751e-08
6.36263e-07
-2.14702e-08
-1.3061e-08
6.11896e-07
-1.43952e-08
5.79978e-07
-2.57765e-08
2.29631e-08
-2.1604e-08
5.59836e-07
-2.7249e-08
1.76138e-08
-1.91414e-08
5.93427e-07
1.19612e-08
-1.76349e-08
6.19007e-07
6.036e-09
-1.6569e-08
6.36263e-07
-6.22526e-12
-1.60485e-08
6.44959e-07
-6.04959e-09
-1.60475e-08
6.44958e-07
-1.19708e-08
-1.65657e-08
6.36262e-07
-1.76225e-08
-1.76279e-08
6.19005e-07
-2.29721e-08
-1.91345e-08
5.93424e-07
-2.15927e-08
5.59837e-07
-2.72594e-08
2.48559e-08
-2.96521e-08
5.29923e-07
-2.81666e-08
1.91227e-08
-2.48721e-08
5.66022e-07
1.30519e-08
-2.29819e-08
5.93424e-07
6.58395e-09
-2.14772e-08
6.11895e-07
-5.72462e-12
-2.07987e-08
6.21184e-07
-6.59374e-09
-2.07974e-08
6.21183e-07
-1.3059e-08
-2.1476e-08
6.11891e-07
-1.91292e-08
-2.29746e-08
5.93423e-07
-2.48597e-08
-2.48663e-08
5.66023e-07
-2.96493e-08
5.29926e-07
-2.81708e-08
2.96454e-08
4.9053e-07
-3.52315e-08
-3.52239e-08
2.15938e-08
5.29923e-07
-2.81791e-08
1.43955e-08
5.59833e-07
-2.72629e-08
7.16495e-09
5.79978e-07
-2.57839e-08
-4.28492e-12
5.90079e-07
-2.51669e-08
-7.16977e-09
5.90078e-07
-2.51645e-08
-1.4399e-08
5.79975e-07
-2.578e-08
-2.15969e-08
5.59835e-07
-2.7256e-08
-2.96514e-08
5.29922e-07
-2.81754e-08
4.90535e-07
-3.52298e-08
-3.52265e-08
3.41384e-08
3.4139e-08
5.02173e-07
-3.99583e-08
-3.99524e-08
2.53851e-08
2.90983e-08
5.42157e-07
-3.25727e-08
1.71595e-08
2.73115e-08
5.72539e-07
-3.17835e-08
8.58823e-09
2.54985e-08
5.92971e-07
-2.99105e-08
1.81748e-11
2.47707e-08
6.03204e-07
-2.93192e-08
-8.5534e-09
2.47699e-08
6.03205e-07
-2.93201e-08
-1.71306e-08
2.54933e-08
5.92971e-07
-2.99082e-08
-2.53623e-08
2.7307e-08
5.7254e-07
-3.17796e-08
-3.41238e-08
2.909e-08
5.42162e-07
-3.25636e-08
3.41317e-08
5.02175e-07
-3.99454e-08
-3.9949e-08
2.90969e-08
2.53844e-08
5.4216e-07
-3.25716e-08
2.27162e-08
2.27176e-08
5.78793e-07
1.57053e-08
2.12182e-08
6.06538e-07
7.96738e-09
1.99426e-08
6.25197e-07
1.45964e-11
1.93663e-08
6.34551e-07
-7.93982e-09
1.93641e-08
6.3455e-07
-1.56799e-08
1.9937e-08
6.25195e-07
-2.26964e-08
2.12104e-08
6.06536e-07
-2.90811e-08
2.27085e-08
5.78792e-07
2.5376e-08
5.42162e-07
-3.25602e-08
2.73136e-08
1.71591e-08
5.72542e-07
-3.17873e-08
2.12184e-08
1.5704e-08
6.0654e-07
1.45524e-08
1.4551e-08
6.32347e-07
7.372e-09
1.36943e-08
6.49699e-07
1.05696e-11
1.32728e-08
6.58418e-07
-7.35002e-09
1.32727e-08
6.58418e-07
-1.4534e-08
1.36905e-08
6.49697e-07
-2.12014e-08
1.45457e-08
6.32342e-07
-2.73014e-08
1.56955e-08
6.06537e-07
1.71499e-08
5.72541e-07
-3.17784e-08
2.54988e-08
8.58337e-09
5.92974e-07
-2.9913e-08
1.99433e-08
7.96267e-09
6.25197e-07
1.36963e-08
7.36936e-09
6.497e-07
6.95971e-09
6.95792e-09
6.66202e-07
9.63069e-12
6.74813e-09
6.74512e-07
-6.9415e-09
6.74705e-09
6.74512e-07
-1.36802e-08
6.95541e-09
6.66199e-07
-1.99292e-08
7.36656e-09
6.49697e-07
-2.54879e-08
7.95757e-09
6.25195e-07
8.57386e-09
5.92972e-07
-2.99055e-08
2.47723e-08
1.525e-11
6.03204e-07
-2.93238e-08
1.93673e-08
1.13463e-11
6.34549e-07
1.3276e-08
9.93379e-12
6.58419e-07
6.75027e-09
1.04127e-11
6.74512e-07
8.27106e-12
9.79081e-12
6.82623e-07
-6.73429e-09
9.92106e-12
6.82624e-07
-1.3262e-08
9.11995e-12
6.74512e-07
-1.93566e-08
8.13892e-12
6.58417e-07
-2.47649e-08
6.55275e-12
6.34548e-07
6.22036e-12
6.03203e-07
-2.93188e-08
2.47695e-08
-8.55277e-09
6.03203e-07
-2.93222e-08
1.93669e-08
-7.93841e-09
6.34546e-07
1.3275e-08
-7.3469e-09
6.58417e-07
6.74953e-09
-6.93711e-09
6.74511e-07
7.88243e-12
-6.72891e-09
6.82623e-07
-6.73423e-09
-6.72881e-09
6.82625e-07
-1.32625e-08
-6.93944e-09
6.74509e-07
-1.93568e-08
-7.35097e-09
6.58418e-07
-2.47656e-08
-7.94408e-09
6.34549e-07
-8.56114e-09
6.03205e-07
-2.93191e-08
2.5494e-08
-1.71251e-08
5.92968e-07
-2.9909e-08
1.99405e-08
-1.56739e-08
6.25193e-07
1.3695e-08
-1.45267e-08
6.49694e-07
6.95841e-09
-1.36729e-08
6.662e-07
7.88473e-12
-1.3254e-08
6.74513e-07
-6.94431e-09
-1.32544e-08
6.74512e-07
-1.36831e-08
-1.36745e-08
6.662e-07
-1.99325e-08
-1.45305e-08
6.49699e-07
-2.54915e-08
-1.56828e-08
6.25195e-07
-1.71351e-08
5.9297e-07
-2.99073e-08
2.7308e-08
-2.53527e-08
5.72539e-07
-3.1782e-08
2.12153e-08
-2.26874e-08
6.06535e-07
1.45516e-08
-2.11944e-08
6.32343e-07
7.37021e-09
-1.99227e-08
6.49697e-07
7.93449e-12
-1.93505e-08
6.58421e-07
-7.35677e-09
-1.93499e-08
6.58421e-07
-1.4541e-08
-1.99262e-08
6.497e-07
-2.1209e-08
-2.11994e-08
6.32344e-07
-2.73036e-08
-2.2697e-08
6.06536e-07
-2.53614e-08
5.72541e-07
-3.1779e-08
2.9092e-08
-3.41118e-08
5.4216e-07
-3.25648e-08
2.27121e-08
-2.90714e-08
5.7879e-07
1.5701e-08
-2.72929e-08
6.06535e-07
7.96322e-09
-2.54836e-08
6.25197e-07
8.64399e-12
-2.47612e-08
6.34552e-07
-7.94977e-09
-2.47613e-08
6.34553e-07
-1.56908e-08
-2.54867e-08
6.25197e-07
-2.27057e-08
-2.72988e-08
6.06539e-07
-2.90856e-08
-2.90824e-08
5.78791e-07
-3.41223e-08
5.42162e-07
-3.256e-08
3.41332e-08
5.02176e-07
-3.99379e-08
-3.9953e-08
2.53795e-08
5.42158e-07
-3.25511e-08
1.71532e-08
5.72539e-07
-3.17717e-08
8.5795e-09
5.92974e-07
-2.9902e-08
7.52162e-12
6.03208e-07
-2.93169e-08
-8.56712e-09
6.03209e-07
-2.93171e-08
-1.71444e-08
5.92972e-07
-2.99054e-08
-2.5372e-08
5.72543e-07
-3.17769e-08
-3.41283e-08
5.42157e-07
-3.25621e-08
5.02177e-07
-3.99475e-08
-3.99427e-08
3.37593e-08
3.3759e-08
5.13648e-07
-3.94957e-08
-3.94964e-08
2.55146e-08
2.94389e-08
5.54244e-07
-3.3282e-08
1.73793e-08
2.81415e-08
5.85142e-07
-3.2607e-08
8.73292e-09
2.65415e-08
6.0595e-07
-3.08741e-08
-4.41297e-13
2.59718e-08
6.16395e-07
-3.04265e-08
-8.7331e-09
2.59732e-08
6.16397e-07
-3.04276e-08
-1.73835e-08
2.65431e-08
6.05953e-07
-3.08719e-08
-2.55251e-08
2.81473e-08
5.85145e-07
-3.26092e-08
-3.37678e-08
2.94466e-08
5.54247e-07
-3.32868e-08
3.3764e-08
5.13644e-07
-3.95069e-08
-3.94953e-08
2.94394e-08
2.55145e-08
5.54246e-07
-3.32831e-08
2.31053e-08
2.31049e-08
5.91463e-07
1.60558e-08
2.20115e-08
6.19721e-07
8.17354e-09
2.08815e-08
6.38741e-07
1.95416e-12
2.04232e-08
6.48272e-07
-8.16624e-09
2.04252e-08
6.48273e-07
-1.60523e-08
2.08855e-08
6.38742e-07
-2.31072e-08
2.20174e-08
6.19724e-07
-2.94451e-08
2.31115e-08
5.91466e-07
2.55226e-08
5.54246e-07
-3.32822e-08
2.81401e-08
1.73779e-08
5.85144e-07
-3.2605e-08
2.20099e-08
1.60541e-08
6.19721e-07
1.51898e-08
1.51899e-08
6.45994e-07
7.71268e-09
1.44192e-08
6.63644e-07
4.79513e-12
1.40601e-08
6.72494e-07
-7.70339e-09
1.40608e-08
6.72495e-07
-1.51836e-08
1.4421e-08
6.63646e-07
-2.201e-08
1.51918e-08
6.45996e-07
-2.81434e-08
1.60589e-08
6.19726e-07
1.73854e-08
5.85145e-07
-3.26066e-08
2.65383e-08
8.73209e-09
6.05952e-07
-3.08694e-08
2.08794e-08
8.1706e-09
6.38742e-07
1.44191e-08
7.7096e-09
6.63645e-07
7.3393e-09
7.33703e-09
6.80369e-07
6.1138e-12
7.15199e-09
6.88761e-07
-7.32849e-09
7.15243e-09
6.88759e-07
-1.4411e-08
7.33653e-09
6.80371e-07
-2.08752e-08
7.71048e-09
6.63647e-07
-2.65381e-08
8.17109e-09
6.38746e-07
8.73344e-09
6.05955e-07
-3.08704e-08
2.59697e-08
-2.05153e-12
6.16396e-07
-3.04264e-08
2.04209e-08
5.72515e-14
6.48272e-07
1.40597e-08
2.02442e-12
6.72493e-07
7.15383e-09
3.47449e-12
6.88758e-07
4.82947e-12
3.90559e-12
6.96927e-07
-7.14371e-09
4.31401e-12
6.96926e-07
-1.40513e-08
3.63933e-12
6.88758e-07
-2.04159e-08
2.59699e-12
6.72494e-07
-2.59682e-08
-9.82438e-14
6.48275e-07
2.39925e-13
6.16397e-07
-3.04256e-08
2.59705e-08
-8.73738e-09
6.16395e-07
-3.04259e-08
2.0423e-08
-8.17118e-09
6.48269e-07
1.40617e-08
-7.70512e-09
6.72491e-07
7.15449e-09
-7.33086e-09
6.88758e-07
3.72424e-12
-7.1451e-09
6.96926e-07
-7.14307e-09
-7.1438e-09
6.96926e-07
-1.40526e-08
-7.32931e-09
6.88758e-07
-2.04175e-08
-7.70501e-09
6.72495e-07
-2.59683e-08
-8.16977e-09
6.48273e-07
-8.73369e-09
6.16396e-07
-3.04249e-08
2.65432e-08
-1.73852e-08
6.0595e-07
-3.08726e-08
2.08841e-08
-1.60545e-08
6.38738e-07
1.44219e-08
-1.51837e-08
6.63643e-07
7.34132e-09
-1.44111e-08
6.80369e-07
3.32986e-12
-1.40531e-08
6.88761e-07
-7.32814e-09
-1.40492e-08
6.88759e-07
-1.44139e-08
-1.44129e-08
6.80371e-07
-2.08779e-08
-1.51839e-08
6.63646e-07
-2.65382e-08
-1.60513e-08
6.38741e-07
-1.738e-08
6.05951e-07
-3.08691e-08
2.81465e-08
-2.55249e-08
5.85146e-07
-3.26103e-08
2.20171e-08
-2.31064e-08
6.1972e-07
1.51938e-08
-2.20086e-08
6.45994e-07
7.71247e-09
-2.08767e-08
6.63648e-07
5.81265e-12
-2.04151e-08
6.72497e-07
-7.70391e-09
-2.04155e-08
6.72498e-07
-1.51847e-08
-2.08749e-08
6.63649e-07
-2.20104e-08
-2.20088e-08
6.45997e-07
-2.81408e-08
-2.3104e-08
6.19723e-07
-2.5519e-08
5.85144e-07
-3.2604e-08
2.94456e-08
-3.3771e-08
5.54249e-07
-3.32877e-08
2.31104e-08
-2.94432e-08
5.91465e-07
1.60561e-08
-2.81405e-08
6.19723e-07
8.17414e-09
-2.65358e-08
6.38744e-07
3.96208e-12
-2.59661e-08
6.48276e-07
-8.16504e-09
-2.5966e-08
6.48278e-07
-1.60495e-08
-2.65363e-08
6.38745e-07
-2.31034e-08
-2.81416e-08
6.19726e-07
-2.94397e-08
-2.94424e-08
5.91467e-07
-3.37632e-08
5.54249e-07
-3.32827e-08
3.37618e-08
5.13648e-07
-3.95041e-08
-3.95004e-08
2.55175e-08
5.54246e-07
-3.32844e-08
1.73776e-08
5.85145e-07
-3.26045e-08
8.73368e-09
6.0595e-07
-3.08671e-08
3.85592e-12
6.16399e-07
-3.04233e-08
-8.72788e-09
6.164e-07
-3.04243e-08
-1.73757e-08
6.05953e-07
-3.08696e-08
-2.55157e-08
5.85149e-07
-3.26072e-08
-3.37617e-08
5.54247e-07
-3.32853e-08
5.13649e-07
-3.94993e-08
-3.9499e-08
3.06135e-08
3.0615e-08
5.24309e-07
-3.5942e-08
-3.59449e-08
2.3423e-08
2.72778e-08
5.65629e-07
-3.14718e-08
1.59581e-08
2.6385e-08
5.9698e-07
-3.07527e-08
8.0328e-09
2.51763e-08
6.18071e-07
-2.93687e-08
-4.5969e-12
2.48204e-08
6.28687e-07
-2.90729e-08
-8.03882e-09
2.48207e-08
6.28685e-07
-2.90731e-08
-1.59613e-08
2.5175e-08
6.1807e-07
-2.93682e-08
-2.34253e-08
2.63817e-08
5.9698e-07
-3.07519e-08
-3.06121e-08
2.7276e-08
5.65629e-07
-3.14694e-08
3.06078e-08
5.24306e-07
-3.59367e-08
-3.59401e-08
2.72807e-08
2.34239e-08
5.65629e-07
-3.14729e-08
2.13307e-08
2.1326e-08
6.0337e-07
1.47629e-08
2.0626e-08
6.32047e-07
7.5206e-09
1.97899e-08
6.51376e-07
-3.85037e-12
1.95258e-08
6.61093e-07
-7.52621e-09
1.95251e-08
6.61093e-07
-1.47704e-08
1.97885e-08
6.51375e-07
-2.13323e-08
2.06248e-08
6.32046e-07
-2.72823e-08
2.13235e-08
6.03367e-07
2.34175e-08
5.65626e-07
-3.14747e-08
2.63857e-08
1.59582e-08
5.96979e-07
-3.07519e-08
2.06303e-08
1.47626e-08
6.32044e-07
1.4255e-08
1.42537e-08
6.58743e-07
7.24822e-09
1.37062e-08
6.76736e-07
-3.30543e-12
1.34974e-08
6.85778e-07
-7.25609e-09
1.3496e-08
6.85779e-07
-1.42615e-08
1.37062e-08
6.76736e-07
-2.06344e-08
1.42522e-08
6.58742e-07
-2.63894e-08
1.47623e-08
6.32045e-07
1.59544e-08
5.96974e-07
-3.07561e-08
2.51754e-08
8.03423e-09
6.18068e-07
-2.93656e-08
1.9791e-08
7.52176e-09
6.51373e-07
1.37089e-08
7.25021e-09
6.76734e-07
6.99181e-09
6.99158e-09
6.93804e-07
-2.86988e-12
6.88057e-09
7.02375e-07
-6.99711e-09
6.88167e-09
7.02371e-07
-1.37146e-08
6.99079e-09
6.93806e-07
-1.97967e-08
7.24953e-09
6.76735e-07
-2.5181e-08
7.52136e-09
6.51376e-07
8.03249e-09
6.18069e-07
-2.9371e-08
2.48214e-08
-1.89489e-12
6.28684e-07
-2.90729e-08
1.95269e-08
-1.28782e-12
6.61092e-07
1.34981e-08
-2.22284e-12
6.85777e-07
6.88209e-09
-2.92416e-12
7.02372e-07
-2.33731e-12
-4.74753e-12
7.107e-07
-6.88889e-09
-4.73133e-12
7.10699e-07
-1.35043e-08
-4.44359e-12
7.0237e-07
-1.95319e-08
-3.07367e-12
6.85776e-07
-2.48268e-08
-3.05591e-12
6.61093e-07
-1.60195e-12
6.2868e-07
-2.90746e-08
2.48207e-08
-8.03849e-09
6.28685e-07
-2.90737e-08
1.95261e-08
-7.52558e-09
6.61091e-07
1.34959e-08
-7.25591e-09
6.85775e-07
6.87984e-09
-6.99817e-09
7.02373e-07
-3.77439e-12
-6.89005e-09
7.10698e-07
-6.88795e-09
-6.89033e-09
7.10699e-07
-1.35036e-08
-6.99967e-09
7.02371e-07
-1.95306e-08
-7.25671e-09
6.85778e-07
-2.48251e-08
-7.52551e-09
6.61092e-07
-8.03839e-09
6.28683e-07
-2.90767e-08
2.51761e-08
-1.59623e-08
6.18069e-07
-2.93697e-08
1.97885e-08
-1.4771e-08
6.51373e-07
1.37053e-08
-1.42626e-08
6.76735e-07
6.98909e-09
-1.37165e-08
6.93804e-07
-4.15167e-12
-1.3507e-08
7.02371e-07
-6.99554e-09
-1.3505e-08
7.02371e-07
-1.37133e-08
-1.37156e-08
6.93805e-07
-1.97933e-08
-1.42595e-08
6.76732e-07
-2.51808e-08
-1.47694e-08
6.51374e-07
-1.59626e-08
6.18067e-07
-2.93746e-08
2.63829e-08
-2.34278e-08
5.96979e-07
-3.07533e-08
2.06248e-08
-2.1335e-08
6.32045e-07
1.42498e-08
-2.06355e-08
6.58742e-07
7.24618e-09
-1.97962e-08
6.76735e-07
-4.3624e-12
-1.95323e-08
6.85777e-07
-7.25364e-09
-1.95326e-08
6.85775e-07
-1.4257e-08
-1.97946e-08
6.76734e-07
-2.063e-08
-2.06322e-08
6.58743e-07
-2.63877e-08
-2.13298e-08
6.32044e-07
-2.34256e-08
5.96979e-07
-3.07576e-08
2.72757e-08
-3.06155e-08
5.65631e-07
-3.147e-08
2.13232e-08
-2.72852e-08
6.0337e-07
1.47593e-08
-2.63912e-08
6.32044e-07
7.51587e-09
-2.51819e-08
6.51373e-07
-3.49399e-12
-2.48247e-08
6.6109e-07
-7.52251e-09
-2.48247e-08
6.61091e-07
-1.47669e-08
-2.51804e-08
6.51373e-07
-2.13286e-08
-2.63882e-08
6.32047e-07
-2.72837e-08
-2.72789e-08
6.03371e-07
-3.06124e-08
5.65632e-07
-3.14787e-08
3.06092e-08
5.24306e-07
-3.59431e-08
-3.59392e-08
2.34188e-08
5.65629e-07
-3.14769e-08
1.59534e-08
5.96978e-07
-3.07567e-08
8.0315e-09
6.18066e-07
-2.93709e-08
-3.34713e-12
6.28682e-07
-2.90737e-08
-8.03571e-09
6.28683e-07
-2.90735e-08
-1.59581e-08
6.18067e-07
-2.93696e-08
-2.3422e-08
5.96983e-07
-3.0756e-08
-3.06147e-08
5.65632e-07
-3.14706e-08
5.2431e-07
-3.59446e-08
-3.59423e-08
2.7132e-08
2.71316e-08
5.33653e-07
-3.18056e-08
-3.18048e-08
2.10625e-08
2.48406e-08
5.76001e-07
-2.91402e-08
1.4342e-08
2.4151e-08
6.07917e-07
-2.83676e-08
7.23014e-09
2.3252e-08
6.29273e-07
-2.73444e-08
1.31675e-11
2.30196e-08
6.40015e-07
-2.71311e-08
-7.20325e-09
2.302e-08
6.40015e-07
-2.71304e-08
-1.43165e-08
2.32492e-08
6.29278e-07
-2.73417e-08
-2.10389e-08
2.41458e-08
6.07923e-07
-2.83641e-08
-2.71137e-08
2.48335e-08
5.76009e-07
-2.91385e-08
2.71269e-08
5.33663e-07
-3.17963e-08
-3.17989e-08
2.48425e-08
2.10625e-08
5.76003e-07
-2.91439e-08
1.93269e-08
1.93261e-08
6.14402e-07
1.32547e-08
1.87991e-08
6.43471e-07
6.73121e-09
1.81436e-08
6.63006e-07
1.19848e-11
1.79918e-08
6.72844e-07
-6.70878e-09
1.79905e-08
6.72845e-07
-1.3232e-08
1.8139e-08
6.63008e-07
-1.9306e-08
1.87937e-08
6.43475e-07
-2.48257e-08
1.93166e-08
6.14408e-07
2.10527e-08
5.7601e-07
-2.91335e-08
2.41544e-08
1.43406e-08
6.07919e-07
-2.83728e-08
1.88002e-08
1.32532e-08
6.43472e-07
1.29311e-08
1.29322e-08
6.70485e-07
6.5705e-09
1.25275e-08
6.88712e-07
1.08409e-11
1.24257e-08
6.97906e-07
-6.55112e-09
1.24249e-08
6.97909e-07
-1.29115e-08
1.25232e-08
6.88712e-07
-1.87851e-08
1.29236e-08
6.70488e-07
-2.41408e-08
1.32455e-08
6.43473e-07
1.43318e-08
6.0792e-07
-2.8363e-08
2.3257e-08
7.22892e-09
6.29275e-07
-2.73512e-08
1.81475e-08
6.7319e-09
6.63006e-07
1.25275e-08
6.56982e-09
6.88712e-07
6.39111e-09
6.39034e-09
7.0608e-07
9.61758e-12
6.34418e-09
7.1484e-07
-6.37329e-09
6.3434e-09
7.14837e-07
-1.25126e-08
6.3877e-09
7.06081e-07
-1.81323e-08
6.56478e-09
6.88714e-07
-2.32448e-08
6.72579e-09
6.63008e-07
7.22053e-09
6.29275e-07
-2.73415e-08
2.30267e-08
1.00956e-11
6.40015e-07
-2.71392e-08
1.79952e-08
1.05615e-11
6.72845e-07
1.24276e-08
9.40364e-12
6.97909e-07
6.34531e-09
7.03678e-12
7.1484e-07
8.74591e-12
6.97867e-12
7.23374e-07
-6.32908e-09
6.49342e-12
7.23373e-07
-1.24143e-08
7.8445e-12
7.14839e-07
-1.79825e-08
5.94304e-12
6.97908e-07
-2.30145e-08
4.52616e-12
6.72847e-07
2.37009e-12
6.40013e-07
-2.71286e-08
2.30275e-08
-7.20752e-09
6.40018e-07
-2.71379e-08
1.79955e-08
-6.71306e-09
6.72849e-07
1.24259e-08
-6.55444e-09
6.9791e-07
6.34331e-09
-6.37515e-09
7.1484e-07
7.09878e-12
-6.33048e-09
7.23372e-07
-6.32896e-09
-6.33075e-09
7.23375e-07
-1.24157e-08
-6.37722e-09
7.14842e-07
-1.79843e-08
-6.55751e-09
6.97911e-07
-2.30151e-08
-6.71869e-09
6.72847e-07
-7.21752e-09
6.40017e-07
-2.71277e-08
2.32556e-08
-1.4323e-08
6.29278e-07
-2.73507e-08
1.81435e-08
-1.32354e-08
6.63011e-07
1.2527e-08
-1.29136e-08
6.88715e-07
6.38967e-09
-1.25137e-08
7.06081e-07
7.31991e-12
-1.24146e-08
7.14839e-07
-6.37638e-09
-1.24148e-08
7.14841e-07
-1.25156e-08
-1.25165e-08
7.06084e-07
-1.8135e-08
-1.29196e-08
6.88714e-07
-2.32478e-08
-1.32426e-08
6.63011e-07
-1.43317e-08
6.29279e-07
-2.73418e-08
2.41536e-08
-2.10457e-08
6.07921e-07
-2.83719e-08
1.87991e-08
-1.93108e-08
6.43475e-07
1.29272e-08
-1.87867e-08
6.70489e-07
6.56756e-09
-1.8131e-08
6.88714e-07
6.18454e-12
-1.79812e-08
6.97907e-07
-6.5563e-09
-1.79833e-08
6.97908e-07
-1.29183e-08
-1.81344e-08
6.88715e-07
-1.87904e-08
-1.87914e-08
6.70491e-07
-2.41456e-08
-1.93187e-08
6.43476e-07
-2.106e-08
6.07925e-07
-2.83646e-08
2.48444e-08
-2.71206e-08
5.76009e-07
-2.91472e-08
1.9326e-08
-2.48303e-08
6.14409e-07
1.32508e-08
-2.41411e-08
6.43475e-07
6.72836e-09
-2.32417e-08
6.63008e-07
4.11381e-12
-2.30129e-08
6.72845e-07
-6.71865e-09
-2.30138e-08
6.72848e-07
-1.32433e-08
-2.32451e-08
6.6301e-07
-1.932e-08
-2.4145e-08
6.43476e-07
-2.48385e-08
-2.48335e-08
6.14408e-07
-2.71332e-08
5.76009e-07
-2.91414e-08
2.71368e-08
5.33659e-07
-3.17999e-08
-3.18105e-08
2.1064e-08
5.76008e-07
-2.91356e-08
1.43385e-08
6.07924e-07
-2.83596e-08
7.22407e-09
6.29277e-07
-2.73376e-08
2.80541e-12
6.40015e-07
-2.71256e-08
-7.21674e-09
6.40016e-07
-2.71242e-08
-1.43318e-08
6.29276e-07
-2.73381e-08
-2.10575e-08
6.07925e-07
-2.83619e-08
-2.71308e-08
5.76007e-07
-2.91357e-08
5.33659e-07
-3.18007e-08
-3.18103e-08
2.376e-08
2.37589e-08
5.41484e-07
-2.76753e-08
-2.76723e-08
1.88012e-08
2.25508e-08
5.85004e-07
-2.65933e-08
1.28894e-08
2.21416e-08
6.17691e-07
-2.60031e-08
6.52055e-09
2.15202e-08
6.39478e-07
-2.53551e-08
-6.69424e-12
2.13574e-08
6.50403e-07
-2.5217e-08
-6.53527e-09
2.13579e-08
6.50403e-07
-2.52181e-08
-1.29046e-08
2.15275e-08
6.39482e-07
-2.53637e-08
-1.88156e-08
2.215e-08
6.17694e-07
-2.60126e-08
-2.37722e-08
2.25643e-08
5.85009e-07
-2.66073e-08
2.37739e-08
5.41487e-07
-2.76812e-08
-2.76882e-08
2.25532e-08
1.88041e-08
5.85005e-07
-2.65989e-08
1.76081e-08
1.76101e-08
6.24291e-07
1.20255e-08
1.72519e-08
6.53945e-07
6.08765e-09
1.66981e-08
6.7377e-07
-4.02901e-12
1.6565e-08
6.83728e-07
-6.09477e-09
1.6566e-08
6.83727e-07
-1.20335e-08
1.67009e-08
6.73774e-07
-1.7615e-08
1.72559e-08
6.53951e-07
-2.256e-08
1.76165e-08
6.243e-07
1.88133e-08
5.85011e-07
-2.66009e-08
2.21432e-08
1.28972e-08
6.17691e-07
-2.6007e-08
1.72504e-08
1.20308e-08
6.53947e-07
1.1799e-08
1.18049e-08
6.81381e-07
5.96662e-09
1.14377e-08
6.99806e-07
-2.92455e-12
1.13508e-08
7.09087e-07
-5.97109e-09
1.13516e-08
7.09092e-07
-1.1805e-08
1.14371e-08
6.99808e-07
-1.72532e-08
1.18061e-08
6.81386e-07
-2.21444e-08
1.20331e-08
6.53948e-07
1.28995e-08
6.17694e-07
-2.60046e-08
2.15222e-08
6.52974e-09
6.39481e-07
-2.53576e-08
1.66965e-08
6.09227e-09
6.73773e-07
1.14329e-08
5.97108e-09
6.99808e-07
5.79508e-09
5.79786e-09
7.17361e-07
-7.25232e-13
5.75827e-09
7.26226e-07
-5.79657e-09
5.75881e-09
7.26225e-07
-1.14379e-08
5.79559e-09
7.17363e-07
-1.66999e-08
5.97045e-09
6.9981e-07
-2.15229e-08
6.09093e-09
6.73774e-07
6.52876e-09
6.3948e-07
-2.53569e-08
2.13532e-08
-1.78853e-12
6.50406e-07
-2.52142e-08
1.65611e-08
5.96703e-14
6.83731e-07
1.13469e-08
3.81106e-13
7.09092e-07
5.75425e-09
1.30751e-13
7.26226e-07
-1.48386e-12
1.15015e-13
7.34887e-07
-5.75834e-09
-6.53718e-13
7.3489e-07
-1.1351e-08
-2.37632e-12
7.26228e-07
-1.6564e-08
-2.97932e-12
7.09093e-07
-2.13533e-08
-3.45839e-12
6.8373e-07
-5.97226e-12
6.50405e-07
-2.52144e-08
2.13547e-08
-6.53196e-09
6.50406e-07
-2.52144e-08
1.65615e-08
-6.09175e-09
6.83734e-07
1.13461e-08
-5.96938e-09
7.09094e-07
5.75454e-09
-5.79498e-09
7.26226e-07
-2.74958e-12
-5.75874e-09
7.34888e-07
-5.76131e-09
-5.75944e-09
7.34891e-07
-1.1352e-08
-5.7979e-09
7.26228e-07
-1.65631e-08
-5.97435e-09
7.09094e-07
-2.13542e-08
-6.09699e-09
6.83732e-07
-6.53723e-09
6.50409e-07
-2.52138e-08
2.15209e-08
-1.2902e-08
6.39483e-07
-2.53568e-08
1.6695e-08
-1.20328e-08
6.73776e-07
1.14331e-08
-1.18049e-08
6.99808e-07
5.79178e-09
-1.14372e-08
7.17362e-07
-3.07216e-12
-1.13495e-08
7.26227e-07
-5.80047e-09
-1.13511e-08
7.26227e-07
-1.14402e-08
-1.144e-08
7.17364e-07
-1.66993e-08
-1.18106e-08
6.9981e-07
-2.15235e-08
-1.20379e-08
6.73776e-07
-1.29084e-08
6.39485e-07
-2.53572e-08
2.21438e-08
-1.88123e-08
6.17692e-07
-2.60061e-08
1.72517e-08
-1.76152e-08
6.5395e-07
1.18013e-08
-1.72527e-08
6.81385e-07
5.96561e-09
-1.66975e-08
6.9981e-07
-5.75347e-12
-1.65614e-08
7.09091e-07
-5.97703e-09
-1.65648e-08
7.09093e-07
-1.18082e-08
-1.67013e-08
6.9981e-07
-1.72564e-08
-1.72606e-08
6.81386e-07
-2.21469e-08
-1.76213e-08
6.53951e-07
-1.88188e-08
6.17695e-07
-2.60074e-08
2.25546e-08
-2.37696e-08
5.85008e-07
-2.65968e-08
1.76101e-08
-2.25593e-08
6.24297e-07
1.20269e-08
-2.21459e-08
6.53951e-07
6.08528e-09
-2.15233e-08
6.73774e-07
-8.24041e-12
-2.13561e-08
6.83731e-07
-6.10178e-09
-2.13571e-08
6.83731e-07
-1.20404e-08
-2.15252e-08
6.73773e-07
-1.76192e-08
-2.21502e-08
6.53947e-07
-2.25599e-08
-2.25635e-08
6.24293e-07
-2.37754e-08
5.85005e-07
-2.66014e-08
2.37606e-08
5.41487e-07
-2.76823e-08
-2.76731e-08
1.88012e-08
5.85009e-07
-2.66031e-08
1.28912e-08
6.17697e-07
-2.60079e-08
6.52038e-09
6.39484e-07
-2.53611e-08
-8.75222e-12
6.50406e-07
-2.52192e-08
-6.53789e-09
6.50405e-07
-2.52173e-08
-1.29058e-08
6.39479e-07
-2.53596e-08
-1.88143e-08
6.17692e-07
-2.60092e-08
-2.37689e-08
5.85002e-07
-2.66026e-08
5.41479e-07
-2.76769e-08
-2.76854e-08
2.00277e-08
2.00284e-08
5.48026e-07
-2.32976e-08
-2.33012e-08
1.6112e-08
1.96893e-08
5.92528e-07
-2.32988e-08
1.11831e-08
1.97134e-08
6.25964e-07
-2.30592e-08
5.70982e-09
1.94635e-08
6.48303e-07
-2.28172e-08
-8.89952e-12
1.94119e-08
6.595e-07
-2.27915e-08
-5.72723e-09
1.94107e-08
6.595e-07
-2.27896e-08
-1.11944e-08
1.94675e-08
6.48303e-07
-2.28177e-08
-1.612e-08
1.97153e-08
6.25961e-07
-2.30569e-08
-2.00299e-08
1.9692e-08
5.92525e-07
-2.32968e-08
2.00264e-08
5.48025e-07
-2.33039e-08
-2.32929e-08
1.96912e-08
1.61122e-08
5.92526e-07
-2.32975e-08
1.54994e-08
1.54981e-08
6.3267e-07
1.06467e-08
1.54715e-08
6.63041e-07
5.40448e-09
1.51327e-08
6.83339e-07
-8.24054e-12
1.50477e-08
6.93504e-07
-5.41921e-09
1.50469e-08
6.93503e-07
-1.06534e-08
1.51351e-08
6.83341e-07
-1.55072e-08
1.54726e-08
6.63044e-07
-1.96942e-08
1.55036e-08
6.32677e-07
1.61134e-08
5.9253e-07
-2.32988e-08
1.97134e-08
1.11835e-08
6.2596e-07
-2.30564e-08
1.54714e-08
1.06452e-08
6.63041e-07
1.06123e-08
1.06129e-08
6.91101e-07
5.36023e-09
1.03315e-08
7.09855e-07
-7.07026e-12
1.02548e-08
7.19249e-07
-5.3745e-09
1.02555e-08
7.19252e-07
-1.06186e-08
1.03326e-08
7.09854e-07
-1.54753e-08
1.06134e-08
6.91101e-07
-1.97186e-08
1.06466e-08
6.63046e-07
1.11871e-08
6.25963e-07
-2.30599e-08
1.94644e-08
5.71383e-09
6.48301e-07
-2.28152e-08
1.51323e-08
5.40747e-09
6.83339e-07
1.03314e-08
5.36433e-09
7.09856e-07
5.20722e-09
5.20733e-09
7.27608e-07
-5.2931e-12
5.16395e-09
7.36529e-07
-5.2173e-09
5.16577e-09
7.36528e-07
-1.03393e-08
5.20891e-09
7.2761e-07
-1.51373e-08
5.3653e-09
7.09856e-07