/*--------------------------------*- C++ -*----------------------------------*\
| =========                 |                                                 |
| \\      /  F ield         | OpenFOAM: The Open Source CFD Toolbox           |
|  \\    /   O peration     | Version:  2406                                  |
|   \\  /    A nd           | Website:  www.openfoam.com                      |
|    \\/     M anipulation  |                                                 |
\*---------------------------------------------------------------------------*/
FoamFile
{
    version     2.0;
    format      ascii;
    arch        "LSB;label=32;scalar=64";
    class       volVectorField;
    location    "1";
    object      U;
}
// * * * * * * * * * * * * * * * * * * * * * * * * * * * * * * * * * * * * * //

dimensions      [0 1 -1 0 0 0 0];

internalField   nonuniform List<vector> 
15000
(
(0.000145149 0.000145121 0.00999732)
(0.000108338 0.000136239 0.00999734)
(7.44547e-05 0.000124549 0.0099982)
(4.38931e-05 0.000117557 0.0099988)
(1.46369e-05 0.000113266 0.00999919)
(-1.456e-05 0.000113255 0.00999924)
(-4.38487e-05 0.000117553 0.00999895)
(-7.44119e-05 0.000124545 0.00999831)
(-0.000108328 0.000136217 0.00999757)
(-0.000145129 0.000145138 0.00999753)
(0.000136257 0.000108328 0.0099974)
(9.63329e-05 9.63257e-05 0.00999798)
(6.63655e-05 8.84714e-05 0.00999894)
(3.88311e-05 8.34026e-05 0.00999945)
(1.27607e-05 8.06209e-05 0.00999961)
(-1.26838e-05 8.06157e-05 0.00999964)
(-3.87616e-05 8.34111e-05 0.00999948)
(-6.63087e-05 8.84678e-05 0.00999908)
(-9.63132e-05 9.63187e-05 0.00999811)
(-0.000136255 0.000108323 0.00999755)
(0.00012454 7.44458e-05 0.00999814)
(8.84749e-05 6.63483e-05 0.00999896)
(6.04628e-05 6.04556e-05 0.00999966)
(3.52537e-05 5.65711e-05 0.00999973)
(1.15534e-05 5.4596e-05 0.00999963)
(-1.14633e-05 5.45888e-05 0.00999973)
(-3.51901e-05 5.65635e-05 0.00999978)
(-6.04059e-05 6.04438e-05 0.00999974)
(-8.84469e-05 6.63412e-05 0.00999916)
(-0.000124541 7.44415e-05 0.00999828)
(0.000117548 4.38931e-05 0.0099989)
(8.34179e-05 3.88232e-05 0.00999937)
(5.65848e-05 3.52432e-05 0.00999974)
(3.28073e-05 3.28058e-05 0.00999956)
(1.07205e-05 3.15788e-05 0.0099994)
(-1.0647e-05 3.15694e-05 0.00999939)
(-3.27438e-05 3.27857e-05 0.00999961)
(-5.65181e-05 3.52189e-05 0.00999984)
(-8.33846e-05 3.87986e-05 0.00999956)
(-0.000117544 4.38624e-05 0.00999905)
(0.00011326 1.46182e-05 0.00999917)
(8.06168e-05 1.27632e-05 0.0099996)
(5.46099e-05 1.15432e-05 0.00999961)
(3.15883e-05 1.07104e-05 0.00999942)
(1.03125e-05 1.03037e-05 0.0099992)
(-1.02531e-05 1.0301e-05 0.00999919)
(-3.15327e-05 1.07012e-05 0.00999942)
(-5.45521e-05 1.15113e-05 0.00999968)
(-8.05896e-05 1.27195e-05 0.00999972)
(-0.000113262 1.45825e-05 0.00999921)
(0.000113272 -1.45801e-05 0.00999916)
(8.06221e-05 -1.26966e-05 0.00999961)
(5.4594e-05 -1.14823e-05 0.00999967)
(3.1588e-05 -1.06577e-05 0.00999935)
(1.03114e-05 -1.02602e-05 0.00999918)
(-1.0264e-05 -1.02648e-05 0.00999925)
(-3.15382e-05 -1.06745e-05 0.00999943)
(-5.45552e-05 -1.15045e-05 0.00999969)
(-8.05892e-05 -1.2737e-05 0.00999972)
(-0.000113253 -1.46048e-05 0.00999923)
(0.000117568 -4.38638e-05 0.00999894)
(8.34254e-05 -3.87757e-05 0.00999942)
(5.65737e-05 -3.5195e-05 0.00999972)
(3.27973e-05 -3.27366e-05 0.0099996)
(1.07054e-05 -3.15319e-05 0.00999942)
(-1.0665e-05 -3.15324e-05 0.00999948)
(-3.2765e-05 -3.27623e-05 0.00999965)
(-5.65433e-05 -3.52121e-05 0.00999981)
(-8.33969e-05 -3.88169e-05 0.00999952)
(-0.000117549 -4.3883e-05 0.00999894)
(0.000124574 -7.44456e-05 0.00999825)
(8.84806e-05 -6.63224e-05 0.00999908)
(6.04576e-05 -6.04032e-05 0.0099997)
(3.52357e-05 -5.65141e-05 0.00999981)
(1.15192e-05 -5.45393e-05 0.00999977)
(-1.14974e-05 -5.45502e-05 0.00999976)
(-3.521e-05 -5.6541e-05 0.00999982)
(-6.04382e-05 -6.04204e-05 0.00999972)
(-8.84507e-05 -6.63519e-05 0.00999904)
(-0.000124532 -7.44566e-05 0.00999833)
(0.000136266 -0.000108354 0.00999761)
(9.6334e-05 -9.63161e-05 0.00999806)
(6.63532e-05 -8.84351e-05 0.00999911)
(3.87966e-05 -8.33798e-05 0.00999958)
(1.2727e-05 -8.05797e-05 0.00999978)
(-1.27219e-05 -8.0583e-05 0.00999984)
(-3.87868e-05 -8.33935e-05 0.00999958)
(-6.63414e-05 -8.84336e-05 0.00999919)
(-9.63207e-05 -9.63505e-05 0.00999803)
(-0.00013624 -0.000108351 0.00999747)
(0.00014512 -0.000145158 0.0099976)
(0.000108311 -0.000136232 0.00999758)
(7.44079e-05 -0.000124528 0.00999832)
(4.3855e-05 -0.000117533 0.00999892)
(1.45881e-05 -0.000113235 0.00999923)
(-1.461e-05 -0.00011323 0.00999939)
(-4.38511e-05 -0.00011757 0.00999891)
(-7.44327e-05 -0.000124515 0.00999849)
(-0.000108333 -0.000136278 0.00999737)
(-0.00014511 -0.000145135 0.00999766)
(0.000198989 0.000199014 0.0103243)
(0.000144076 0.000169935 0.0102922)
(9.96521e-05 0.000166211 0.010268)
(5.90695e-05 0.000159892 0.0102528)
(1.94062e-05 0.00015724 0.0102449)
(-1.96539e-05 0.000157243 0.010245)
(-5.92953e-05 0.000159914 0.0102527)
(-9.98207e-05 0.000166229 0.010268)
(-0.00014417 0.000169959 0.010292)
(-0.000199046 0.000199033 0.0103241)
(0.000169909 0.000144091 0.0102922)
(0.000130545 0.000130552 0.010259)
(9.48427e-05 0.000125666 0.0102353)
(5.6479e-05 0.000121858 0.0102203)
(1.88144e-05 0.000120262 0.0102132)
(-1.90469e-05 0.000120267 0.0102132)
(-5.66927e-05 0.000121874 0.0102204)
(-9.50177e-05 0.000125689 0.0102353)
(-0.000130647 0.000130583 0.0102589)
(-0.000169967 0.000144131 0.010292)
(0.000166212 9.9659e-05 0.010268)
(0.000125655 9.48481e-05 0.0102353)
(9.02862e-05 9.02913e-05 0.0102127)
(5.36686e-05 8.72701e-05 0.0101984)
(1.78419e-05 8.5719e-05 0.0101917)
(-1.80547e-05 8.57375e-05 0.0101917)
(-5.38614e-05 8.72997e-05 0.0101985)
(-9.04412e-05 9.03475e-05 0.0102127)
(-0.000125755 9.49195e-05 0.0102353)
(-0.000166262 9.97371e-05 0.010268)
(0.000159896 5.90828e-05 0.0102527)
(0.000121836 5.64824e-05 0.0102203)
(8.72653e-05 5.36857e-05 0.0101984)
(5.19332e-05 5.19445e-05 0.0101846)
(1.72638e-05 5.10692e-05 0.010178)
(-1.74365e-05 5.10833e-05 0.0101781)
(-5.21014e-05 5.19881e-05 0.0101846)
(-8.74016e-05 5.37543e-05 0.0101984)
(-0.000121926 5.65662e-05 0.0102203)
(-0.00015994 5.91764e-05 0.0102527)
(0.000157225 1.9429e-05 0.010245)
(0.000120262 1.88361e-05 0.0102132)
(8.57154e-05 1.78534e-05 0.0101917)
(5.10485e-05 1.72637e-05 0.0101781)
(1.69639e-05 1.69618e-05 0.0101716)
(-1.7105e-05 1.69856e-05 0.0101715)
(-5.11908e-05 1.73049e-05 0.0101781)
(-8.58265e-05 1.79202e-05 0.0101917)
(-0.000120343 1.89178e-05 0.0102132)
(-0.000157262 1.95309e-05 0.0102449)
(0.000157222 -1.96461e-05 0.010245)
(0.000120271 -1.90287e-05 0.0102133)
(8.57207e-05 -1.80474e-05 0.0101917)
(5.10611e-05 -1.74421e-05 0.0101781)
(1.69688e-05 -1.71163e-05 0.0101715)
(-1.70895e-05 -1.70999e-05 0.0101715)
(-5.11828e-05 -1.74078e-05 0.0101781)
(-8.58138e-05 -1.79919e-05 0.0101917)
(-0.000120331 -1.89669e-05 0.0102132)
(-0.000157264 -1.95548e-05 0.0102449)
(0.000159888 -5.92909e-05 0.0102528)
(0.000121845 -5.6694e-05 0.0102204)
(8.72783e-05 -5.38788e-05 0.0101985)
(5.1965e-05 -5.21222e-05 0.0101846)
(1.72965e-05 -5.12207e-05 0.010178)
(-1.73986e-05 -5.12101e-05 0.010178)
(-5.206e-05 -5.20941e-05 0.0101846)
(-8.73628e-05 -5.38306e-05 0.0101984)
(-0.000121899 -5.66258e-05 0.0102203)
(-0.000159925 -5.92175e-05 0.0102528)
(0.000166189 -9.9827e-05 0.010268)
(0.000125658 -9.50389e-05 0.0102353)
(9.03215e-05 -9.04713e-05 0.0102127)
(5.37297e-05 -8.74281e-05 0.0101985)
(1.79026e-05 -8.58547e-05 0.0101916)
(-1.79874e-05 -8.58452e-05 0.0101916)
(-5.38006e-05 -8.73989e-05 0.0101984)
(-9.03926e-05 -9.04185e-05 0.0102127)
(-0.000125717 -9.49789e-05 0.0102352)
(-0.000166258 -9.97598e-05 0.010268)
(0.000169904 -0.000144203 0.0102921)
(0.00013056 -0.000130682 0.010259)
(9.48955e-05 -0.0001258 0.0102353)
(5.6559e-05 -0.000121962 0.0102203)
(1.89004e-05 -0.000120374 0.0102131)
(-1.89723e-05 -0.000120362 0.0102131)
(-5.66132e-05 -0.000121954 0.0102202)
(-9.49418e-05 -0.000125759 0.0102352)
(-0.000130611 -0.000130636 0.010259)
(-0.000169944 -0.000144146 0.0102921)
(0.00019901 -0.000199063 0.010324)
(0.000144132 -0.000170021 0.010292)
(9.97508e-05 -0.000166306 0.010268)
(5.91808e-05 -0.000159974 0.0102527)
(1.95182e-05 -0.000157301 0.0102448)
(-1.95659e-05 -0.000157286 0.0102448)
(-5.92129e-05 -0.000159959 0.0102527)
(-9.97817e-05 -0.000166259 0.0102679)
(-0.000144169 -0.000169989 0.0102921)
(-0.000199061 -0.000199043 0.0103241)
(0.000223092 0.000223088 0.0105593)
(0.000167068 0.000193591 0.0105222)
(0.000117232 0.000194511 0.0104942)
(7.04053e-05 0.000187765 0.0104754)
(2.30531e-05 0.000186168 0.0104654)
(-2.28226e-05 0.000186176 0.0104654)
(-7.0193e-05 0.000187752 0.0104753)
(-0.000117057 0.000194502 0.0104939)
(-0.000166942 0.000193578 0.0105221)
(-0.000223025 0.000223069 0.0105593)
(0.000193585 0.000167073 0.0105223)
(0.000154322 0.000154335 0.0104848)
(0.000112465 0.000150601 0.010455)
(6.79572e-05 0.00014632 0.0104353)
(2.27941e-05 0.000144961 0.0104253)
(-2.26119e-05 0.000144951 0.0104253)
(-6.77862e-05 0.000146293 0.0104352)
(-0.000112313 0.000150577 0.0104548)
(-0.000154204 0.000154279 0.0104846)
(-0.000193516 0.000167022 0.0105222)
(0.000194521 0.000117225 0.0104942)
(0.000150613 0.000112469 0.010455)
(0.000109054 0.000109058 0.0104254)
(6.52778e-05 0.000105809 0.0104061)
(2.18894e-05 0.000104264 0.0103966)
(-2.17491e-05 0.000104261 0.0103965)
(-6.51477e-05 0.00010578 0.0104059)
(-0.000108937 0.000109014 0.0104252)
(-0.000150521 0.000112415 0.0104548)
(-0.000194476 0.000117166 0.010494)
(0.000187767 7.03834e-05 0.0104754)
(0.000146337 6.79313e-05 0.0104353)
(0.000105813 6.52571e-05 0.0104061)
(6.34013e-05 6.33813e-05 0.0103874)
(2.12992e-05 6.24605e-05 0.0103785)
(-2.1184e-05 6.24537e-05 0.0103784)
(-6.32851e-05 6.33631e-05 0.0103873)
(-0.000105718 6.52341e-05 0.0104059)
(-0.000146257 6.7884e-05 0.0104351)
(-0.000187725 7.03236e-05 0.0104753)
(0.000186196 2.30243e-05 0.0104654)
(0.000144964 2.2768e-05 0.0104253)
(0.000104278 2.18771e-05 0.0103966)
(6.24802e-05 2.12923e-05 0.0103785)
(2.09609e-05 2.09483e-05 0.0103698)
(-2.08588e-05 2.09484e-05 0.0103698)
(-6.23858e-05 2.1281e-05 0.0103784)
(-0.000104199 2.18581e-05 0.0103965)
(-0.000144913 2.27354e-05 0.0104252)
(-0.000186152 2.29644e-05 0.0104653)
(0.000186169 -2.2828e-05 0.0104653)
(0.000144965 -2.26183e-05 0.0104252)
(0.000104273 -2.17491e-05 0.0103966)
(6.2474e-05 -2.11646e-05 0.0103784)
(2.0951e-05 -2.08315e-05 0.0103698)
(-2.08564e-05 -2.083e-05 0.0103698)
(-6.23925e-05 -2.11807e-05 0.0103784)
(-0.000104196 -2.17595e-05 0.0103965)
(-0.000144917 -2.26543e-05 0.0104252)
(-0.000186156 -2.28785e-05 0.0104654)
(0.000187765 -7.01668e-05 0.0104753)
(0.000146305 -6.77553e-05 0.0104352)
(0.000105802 -6.50994e-05 0.010406)
(6.33951e-05 -6.32442e-05 0.0103873)
(2.12919e-05 -6.23344e-05 0.0103784)
(-2.12026e-05 -6.23427e-05 0.0103784)
(-6.33034e-05 -6.3257e-05 0.0103873)
(-0.000105742 -6.51346e-05 0.010406)
(-0.000146275 -6.77971e-05 0.0104352)
(-0.000187745 -7.02333e-05 0.0104753)
(0.000194514 -0.000117004 0.010494)
(0.000150594 -0.000112271 0.0104548)
(0.000109052 -0.0001089 0.0104253)
(6.52678e-05 -0.000105676 0.0104059)
(2.18768e-05 -0.000104158 0.0103966)
(-2.17892e-05 -0.000104159 0.0103965)
(-6.51891e-05 -0.000105693 0.010406)
(-0.000108992 -0.000108927 0.0104252)
(-0.000150553 -0.000112326 0.0104548)
(-0.00019448 -0.000117057 0.0104941)
(0.000193595 -0.000166868 0.010522)
(0.000154308 -0.000154138 0.0104846)
(0.000112443 -0.000150466 0.0104548)
(6.79312e-05 -0.000146214 0.0104352)
(2.27646e-05 -0.000144884 0.0104252)
(-2.26664e-05 -0.00014488 0.0104252)
(-6.78482e-05 -0.000146238 0.0104352)
(-0.000112387 -0.000150503 0.0104548)
(-0.000154258 -0.000154213 0.0104846)
(-0.000193531 -0.000166938 0.0105222)
(0.000223108 -0.000222941 0.0105593)
(0.000167041 -0.000193448 0.0105221)
(0.000117196 -0.000194419 0.0104939)
(7.03534e-05 -0.000187697 0.0104754)
(2.29949e-05 -0.00018614 0.0104654)
(-2.28985e-05 -0.000186141 0.0104654)
(-7.02794e-05 -0.000187714 0.0104753)
(-0.000117135 -0.000194448 0.010494)
(-0.000166989 -0.000193519 0.010522)
(-0.000223042 -0.000223004 0.0105593)
(0.000216831 0.000216801 0.0108083)
(0.000165515 0.000194314 0.0107643)
(0.000116937 0.000199455 0.0107334)
(7.08902e-05 0.000194914 0.0107132)
(2.28829e-05 0.000195042 0.0107026)
(-2.28698e-05 0.000195063 0.0107027)
(-7.08872e-05 0.000194911 0.0107134)
(-0.000116985 0.000199474 0.0107337)
(-0.000165579 0.000194336 0.0107646)
(-0.000216867 0.000216816 0.0108084)
(0.000194326 0.000165505 0.0107644)
(0.000156142 0.000156119 0.0107226)
(0.000113563 0.000155612 0.0106905)
(6.93818e-05 0.000152852 0.010669)
(2.30713e-05 0.000152523 0.0106576)
(-2.30268e-05 0.000152525 0.0106577)
(-6.93416e-05 0.000152864 0.0106691)
(-0.000113551 0.000155642 0.0106907)
(-0.000156159 0.000156158 0.0107228)
(-0.000194329 0.000165552 0.0107645)
(0.000199445 0.000116939 0.0107335)
(0.000155612 0.000113559 0.0106906)
(0.000113243 0.000113249 0.0106578)
(6.81166e-05 0.000111144 0.0106353)
(2.28188e-05 0.000110419 0.0106239)
(-2.27633e-05 0.000110421 0.0106239)
(-6.80626e-05 0.000111161 0.0106354)
(-0.000113218 0.000113265 0.0106578)
(-0.000155611 0.000113588 0.0106907)
(-0.000199462 0.000116965 0.0107336)
(0.00019489 7.08859e-05 0.0107133)
(0.000152835 6.9368e-05 0.0106691)
(0.000111137 6.8106e-05 0.0106354)
(6.68224e-05 6.68105e-05 0.0106126)
(2.24535e-05 6.62229e-05 0.0106011)
(-2.23877e-05 6.6224e-05 0.0106012)
(-6.67601e-05 6.68066e-05 0.0106126)
(-0.000111091 6.81129e-05 0.0106354)
(-0.000152821 6.93759e-05 0.0106691)
(-0.000194898 7.0901e-05 0.0107134)
(0.000195043 2.28704e-05 0.0107027)
(0.000152507 2.30622e-05 0.0106577)
(0.000110406 2.27953e-05 0.0106238)
(6.62356e-05 2.24374e-05 0.0106011)
(2.22326e-05 2.22265e-05 0.0105899)
(-2.21787e-05 2.22329e-05 0.0105899)
(-6.61742e-05 2.24381e-05 0.0106011)
(-0.000110363 2.27971e-05 0.0106238)
(-0.000152488 2.30471e-05 0.0106577)
(-0.000195037 2.28693e-05 0.0107027)
(0.000195036 -2.2877e-05 0.0107027)
(0.000152521 -2.30486e-05 0.0106576)
(0.000110419 -2.2763e-05 0.0106238)
(6.62386e-05 -2.23971e-05 0.0106011)
(2.22286e-05 -2.21867e-05 0.0105899)
(-2.21784e-05 -2.21782e-05 0.0105899)
(-6.61712e-05 -2.23945e-05 0.0106011)
(-0.000110377 -2.27619e-05 0.0106239)
(-0.000152494 -2.30469e-05 0.0106577)
(-0.000195027 -2.28619e-05 0.0107027)
(0.000194911 -7.09108e-05 0.0107133)
(0.000152862 -6.93559e-05 0.010669)
(0.000111155 -6.80664e-05 0.0106353)
(6.683e-05 -6.67639e-05 0.0106126)
(2.2449e-05 -6.61801e-05 0.0106012)
(-2.2395e-05 -6.61674e-05 0.0106012)
(-6.67629e-05 -6.67647e-05 0.0106126)
(-0.00011111 -6.80683e-05 0.0106354)
(-0.000152829 -6.9339e-05 0.0106691)
(-0.000194883 -7.08761e-05 0.0107133)
(0.000199484 -0.000116976 0.0107336)
(0.000155633 -0.000113555 0.0106906)
(0.000113274 -0.000113215 0.0106578)
(6.81144e-05 -0.000111104 0.0106355)
(2.28145e-05 -0.000110374 0.0106239)
(-2.27547e-05 -0.000110357 0.010624)
(-6.80617e-05 -0.000111098 0.0106355)
(-0.000113226 -0.000113212 0.0106579)
(-0.000155599 -0.000113531 0.0106906)
(-0.000199436 -0.000116933 0.0107336)
(0.000194338 -0.000165596 0.0107646)
(0.000156158 -0.000156149 0.0107228)
(0.000113568 -0.000155608 0.0106906)
(6.93644e-05 -0.000152823 0.0106692)
(2.30758e-05 -0.000152475 0.0106578)
(-2.30196e-05 -0.000152482 0.0106578)
(-6.93239e-05 -0.000152809 0.0106692)
(-0.000113518 -0.000155602 0.0106907)
(-0.00015612 -0.000156119 0.0107228)
(-0.000194301 -0.000165545 0.0107646)
(0.000216806 -0.00021689 0.0108085)
(0.000165528 -0.000194335 0.0107645)
(0.000116917 -0.000199445 0.0107337)
(7.08674e-05 -0.000194874 0.0107134)
(2.28903e-05 -0.00019502 0.0107028)
(-2.28354e-05 -0.000195017 0.0107028)
(-7.08444e-05 -0.000194886 0.0107134)
(-0.000116901 -0.000199458 0.0107337)
(-0.000165514 -0.00019434 0.0107645)
(-0.000216816 -0.000216815 0.0108085)
(0.00019396 0.000193995 0.0110442)
(0.000150392 0.000180213 0.0109928)
(0.000106175 0.000187134 0.0109571)
(6.44984e-05 0.000185288 0.0109346)
(2.05169e-05 0.000186792 0.0109235)
(-2.05701e-05 0.000186791 0.0109235)
(-6.45286e-05 0.000185256 0.0109345)
(-0.000106187 0.000187102 0.0109569)
(-0.000150406 0.00018019 0.0109926)
(-0.000193951 0.000193932 0.0110439)
(0.000180219 0.000150393 0.0109928)
(0.000144011 0.000143979 0.0109445)
(0.000103599 0.00014573 0.0109098)
(6.35509e-05 0.000144712 0.0108875)
(2.0857e-05 0.000145507 0.0108761)
(-2.0909e-05 0.000145506 0.0108761)
(-6.35868e-05 0.000144707 0.0108874)
(-0.000103622 0.000145718 0.0109096)
(-0.000144032 0.000143947 0.0109444)
(-0.000180243 0.000150329 0.0109926)
(0.000187132 0.000106179 0.010957)
(0.000145759 0.00010358 0.0109097)
(0.000105929 0.000105917 0.0108754)
(6.38929e-05 0.000105445 0.0108524)
(2.13243e-05 0.000105895 0.0108406)
(-2.13727e-05 0.00010588 0.0108406)
(-6.39459e-05 0.00010544 0.0108524)
(-0.000105957 0.000105888 0.0108754)
(-0.000145792 0.000103564 0.0109098)
(-0.000187162 0.000106138 0.0109569)
(0.000185255 6.44947e-05 0.0109345)
(0.000144734 6.35429e-05 0.0108875)
(0.000105449 6.38978e-05 0.0108524)
(6.36398e-05 6.36223e-05 0.0108286)
(2.13635e-05 6.3709e-05 0.0108162)
(-2.14035e-05 6.37049e-05 0.0108161)
(-6.3678e-05 6.36143e-05 0.0108286)
(-0.000105488 6.38905e-05 0.0108525)
(-0.00014477 6.35381e-05 0.0108875)
(-0.000185294 6.44836e-05 0.0109345)
(0.000186794 2.05344e-05 0.0109235)
(0.00014552 2.08833e-05 0.0108761)
(0.000105894 2.13338e-05 0.0108406)
(6.37199e-05 2.13798e-05 0.0108161)
(2.14078e-05 2.14009e-05 0.0108035)
(-2.14554e-05 2.14054e-05 0.0108035)
(-6.37559e-05 2.13725e-05 0.0108161)
(-0.000105934 2.13332e-05 0.0108406)
(-0.000145558 2.08686e-05 0.0108761)
(-0.000186816 2.05274e-05 0.0109235)
(0.000186791 -2.05547e-05 0.0109235)
(0.000145514 -2.08938e-05 0.010876)
(0.000105883 -2.13658e-05 0.0108406)
(6.37e-05 -2.14191e-05 0.0108162)
(2.13938e-05 -2.14627e-05 0.0108035)
(-2.14518e-05 -2.1457e-05 0.0108035)
(-6.37528e-05 -2.14264e-05 0.0108161)
(-0.000105921 -2.13673e-05 0.0108406)
(-0.000145545 -2.0897e-05 0.0108761)
(-0.000186817 -2.05507e-05 0.0109235)
(0.000185271 -6.45395e-05 0.0109345)
(0.000144711 -6.35951e-05 0.0108874)
(0.000105431 -6.39492e-05 0.0108524)
(6.36093e-05 -6.36775e-05 0.0108285)
(2.1361e-05 -6.3774e-05 0.0108161)
(-2.14028e-05 -6.37655e-05 0.0108161)
(-6.36636e-05 -6.36759e-05 0.0108286)
(-0.000105466 -6.39388e-05 0.0108524)
(-0.000144748 -6.35684e-05 0.0108874)
(-0.000185304 -6.45221e-05 0.0109345)
(0.000187124 -0.000106195 0.010957)
(0.000145717 -0.000103632 0.0109096)
(0.000105895 -0.000105969 0.0108753)
(6.3866e-05 -0.000105497 0.0108525)
(2.13141e-05 -0.000105937 0.0108406)
(-2.13728e-05 -0.000105935 0.0108406)
(-6.39102e-05 -0.000105489 0.0108525)
(-0.000105921 -0.000105934 0.0108753)
(-0.00014575 -0.000103608 0.0109097)
(-0.000187156 -0.000106177 0.0109569)
(0.000180193 -0.000150417 0.0109927)
(0.000143955 -0.00014404 0.0109444)
(0.000103553 -0.000145789 0.0109097)
(6.35123e-05 -0.000144765 0.0108874)
(2.08457e-05 -0.000145546 0.0108761)
(-2.08897e-05 -0.000145547 0.0108761)
(-6.35603e-05 -0.000144747 0.0108874)
(-0.000103578 -0.000145773 0.0109097)
(-0.000143999 -0.000143985 0.0109445)
(-0.000180248 -0.000150377 0.0109927)
(0.000193945 -0.000193979 0.0110439)
(0.000150345 -0.000180258 0.0109926)
(0.00010614 -0.00018717 0.0109569)
(6.44626e-05 -0.000185295 0.0109344)
(2.05202e-05 -0.000186813 0.0109235)
(-2.05543e-05 -0.000186805 0.0109235)
(-6.44963e-05 -0.000185278 0.0109345)
(-0.000106151 -0.000187141 0.010957)
(-0.000150375 -0.000180205 0.0109927)
(-0.000193987 -0.00019395 0.011044)
(0.00017 0.000170004 0.0112679)
(0.000133944 0.000164942 0.0112174)
(9.47625e-05 0.000171855 0.0111784)
(5.74319e-05 0.000172019 0.0111524)
(1.81964e-05 0.000174112 0.0111401)
(-1.80139e-05 0.000174121 0.01114)
(-5.725e-05 0.000172017 0.0111525)
(-9.45979e-05 0.000171837 0.0111786)
(-0.000133799 0.000164912 0.0112177)
(-0.00016989 0.000169987 0.0112681)
(0.000164946 0.000133953 0.0112174)
(0.000130653 0.000130652 0.011165)
(9.27508e-05 0.000133125 0.0111263)
(5.66823e-05 0.000132956 0.0111016)
(1.84116e-05 0.000134132 0.0110897)
(-1.82595e-05 0.000134122 0.0110897)
(-5.6527e-05 0.000132931 0.0111016)
(-9.26103e-05 0.000133089 0.0111264)
(-0.000130531 0.000130596 0.0111651)
(-0.000164855 0.000133905 0.0112175)
(0.000171873 9.47562e-05 0.0111784)
(0.000133136 9.27515e-05 0.0111263)
(9.6047e-05 9.60519e-05 0.0110889)
(5.78106e-05 9.63621e-05 0.0110653)
(1.9277e-05 9.74665e-05 0.0110539)
(-1.91406e-05 9.74641e-05 0.011054)
(-5.76905e-05 9.63308e-05 0.0110654)
(-9.59317e-05 9.60079e-05 0.0110889)
(-0.000133043 9.26942e-05 0.0111263)
(-0.000171791 9.46974e-05 0.0111783)
(0.000172056 5.74221e-05 0.0111524)
(0.00013298 5.66728e-05 0.0111015)
(9.63688e-05 5.78214e-05 0.0110653)
(5.81195e-05 5.81313e-05 0.011042)
(1.95385e-05 5.86707e-05 0.0110305)
(-1.94168e-05 5.86652e-05 0.0110305)
(-5.80173e-05 5.81014e-05 0.011042)
(-9.62643e-05 5.77861e-05 0.0110653)
(-0.000132894 5.6642e-05 0.0111016)
(-0.000171978 5.73691e-05 0.0111524)
(0.00017417 1.81752e-05 0.01114)
(0.000134161 1.84146e-05 0.0110896)
(9.74901e-05 1.92713e-05 0.0110539)
(5.86687e-05 1.95288e-05 0.0110305)
(1.97968e-05 1.97941e-05 0.0110187)
(-1.96848e-05 1.97982e-05 0.0110187)
(-5.85749e-05 1.95374e-05 0.0110305)
(-9.74001e-05 1.92484e-05 0.0110538)
(-0.000134088 1.83783e-05 0.0110897)
(-0.00017408 1.81267e-05 0.0111399)
(0.000174174 -1.80309e-05 0.0111401)
(0.00013417 -1.82747e-05 0.0110897)
(9.74823e-05 -1.91512e-05 0.0110539)
(5.86584e-05 -1.94347e-05 0.0110305)
(1.97911e-05 -1.96953e-05 0.0110187)
(-1.96908e-05 -1.9697e-05 0.0110187)
(-5.85806e-05 -1.9436e-05 0.0110305)
(-9.74214e-05 -1.91772e-05 0.0110539)
(-0.000134083 -1.83142e-05 0.0110897)
(-0.000174088 -1.80828e-05 0.01114)
(0.000172076 -5.72982e-05 0.0111525)
(0.000132974 -5.65574e-05 0.0111016)
(9.63504e-05 -5.77105e-05 0.0110653)
(5.81165e-05 -5.80283e-05 0.0110421)
(1.95348e-05 -5.85897e-05 0.0110305)
(-1.94371e-05 -5.85951e-05 0.0110305)
(-5.80414e-05 -5.8045e-05 0.0110421)
(-9.62874e-05 -5.77374e-05 0.0110653)
(-0.00013291 -5.65978e-05 0.0111016)
(-0.000172 -5.73592e-05 0.0111524)
(0.000171897 -9.46318e-05 0.0111785)
(0.000133141 -9.26323e-05 0.0111264)
(9.60371e-05 -9.5948e-05 0.0110889)
(5.77955e-05 -9.62718e-05 0.0110653)
(1.92554e-05 -9.73959e-05 0.0110539)
(-1.91699e-05 -9.7396e-05 0.0110538)
(-5.77245e-05 -9.62866e-05 0.0110653)
(-9.599e-05 -9.59874e-05 0.0110889)
(-0.000133073 -9.27004e-05 0.0111263)
(-0.000171829 -9.47267e-05 0.0111785)
(0.00016499 -0.000133827 0.0112176)
(0.000130674 -0.000130547 0.0111652)
(9.27459e-05 -0.000133037 0.0111263)
(5.66591e-05 -0.00013286 0.0111016)
(1.83811e-05 -0.000134059 0.0110896)
(-1.83101e-05 -0.000134082 0.0110896)
(-5.66108e-05 -0.000132905 0.0111016)
(-9.26975e-05 -0.000133083 0.0111264)
(-0.000130627 -0.000130599 0.0111651)
(-0.000164936 -0.000133947 0.0112176)
(0.000170045 -0.000169909 0.0112681)
(0.000133991 -0.000164862 0.0112176)
(9.47659e-05 -0.00017178 0.0111785)
(5.73921e-05 -0.000171957 0.0111524)
(1.81414e-05 -0.000174073 0.01114)
(-1.80942e-05 -0.000174072 0.01114)
(-5.73616e-05 -0.000171985 0.0111524)
(-9.47135e-05 -0.000171819 0.0111786)
(-0.000133943 -0.000164897 0.0112176)
(-0.000169984 -0.000170019 0.0112682)
(0.000147445 0.000147432 0.0114378)
(0.000117893 0.000150428 0.011396)
(8.46152e-05 0.000157842 0.0113586)
(5.12315e-05 0.000159916 0.0113308)
(1.62242e-05 0.000162288 0.011317)
(-1.63223e-05 0.000162284 0.011317)
(-5.13368e-05 0.000159969 0.0113309)
(-8.47124e-05 0.000157903 0.0113585)
(-0.000117977 0.00015053 0.011396)
(-0.000147508 0.000147544 0.0114379)
(0.000150449 0.000117894 0.0113961)
(0.000118724 0.000118719 0.0113447)
(8.42022e-05 0.000122221 0.011304)
(5.10983e-05 0.000122633 0.0112761)
(1.64177e-05 0.000123752 0.0112625)
(-1.64783e-05 0.000123762 0.0112625)
(-5.11487e-05 0.000122671 0.0112761)
(-8.42425e-05 0.00012228 0.011304)
(-0.000118769 0.000118799 0.0113449)
(-0.000150485 0.000117995 0.0113962)
(0.000157844 8.46546e-05 0.0113586)
(0.000122225 8.42364e-05 0.0113041)
(8.78739e-05 8.7905e-05 0.0112628)
(5.24631e-05 8.82925e-05 0.0112363)
(1.73668e-05 8.93615e-05 0.0112238)
(-1.74032e-05 8.93698e-05 0.0112239)
(-5.2501e-05 8.83024e-05 0.0112363)
(-8.78992e-05 8.79194e-05 0.0112629)
(-0.000122245 8.42569e-05 0.0113041)
(-0.000157849 8.46927e-05 0.0113587)
(0.000159927 5.12889e-05 0.0113309)
(0.000122639 5.11291e-05 0.0112762)
(8.82511e-05 5.25043e-05 0.0112364)
(5.2739e-05 5.27544e-05 0.0112116)
(1.76131e-05 5.32818e-05 0.0111999)
(-1.76135e-05 5.32905e-05 0.0111999)
(-5.2765e-05 5.27522e-05 0.0112116)
(-8.82862e-05 5.25109e-05 0.0112364)
(-0.000122663 5.11425e-05 0.0112761)
(-0.000159918 5.12995e-05 0.0113309)
(0.000162269 1.62686e-05 0.011317)
(0.000123721 1.64441e-05 0.0112625)
(8.9335e-05 1.73845e-05 0.0112239)
(5.32533e-05 1.76249e-05 0.0112)
(1.79005e-05 1.79118e-05 0.0111887)
(-1.79116e-05 1.79113e-05 0.0111887)
(-5.32814e-05 1.76169e-05 0.0112)
(-8.93565e-05 1.73859e-05 0.011224)
(-0.000123739 1.64442e-05 0.0112626)
(-0.00016226 1.62725e-05 0.0113171)
(0.000162266 -1.63094e-05 0.0113171)
(0.000123742 -1.6462e-05 0.0112626)
(8.93285e-05 -1.73896e-05 0.011224)
(5.32617e-05 -1.76162e-05 0.0112)
(1.78977e-05 -1.79044e-05 0.0111887)
(-1.79297e-05 -1.79148e-05 0.0111888)
(-5.32945e-05 -1.7636e-05 0.0112)
(-8.93547e-05 -1.74072e-05 0.011224)
(-0.000123733 -1.64804e-05 0.0112626)
(-0.00016226 -1.63233e-05 0.0113171)
(0.00015992 -5.13155e-05 0.0113309)
(0.000122628 -5.1139e-05 0.0112761)
(8.82639e-05 -5.24988e-05 0.0112364)
(5.27437e-05 -5.27452e-05 0.0112116)
(1.76052e-05 -5.32803e-05 0.0112)
(-1.76444e-05 -5.32814e-05 0.0112)
(-5.27794e-05 -5.27566e-05 0.0112117)
(-8.82927e-05 -5.25294e-05 0.0112365)
(-0.00012265 -5.11698e-05 0.0112762)
(-0.000159923 -5.13532e-05 0.011331)
(0.000157855 -8.47098e-05 0.0113585)
(0.000122238 -8.42541e-05 0.0113041)
(8.79019e-05 -8.79048e-05 0.0112629)
(5.24869e-05 -8.82869e-05 0.0112364)
(1.73648e-05 -8.93425e-05 0.0112239)
(-1.74307e-05 -8.9354e-05 0.011224)
(-5.25343e-05 -8.83014e-05 0.0112365)
(-8.7926e-05 -8.79532e-05 0.011263)
(-0.000122257 -8.42872e-05 0.0113042)
(-0.000157862 -8.47557e-05 0.0113587)
(0.000150454 -0.000117968 0.0113961)
(0.00011875 -0.000118775 0.0113448)
(8.42246e-05 -0.000122238 0.0113041)
(5.11095e-05 -0.000122643 0.0112761)
(1.64115e-05 -0.000123738 0.0112626)
(-1.65029e-05 -0.000123766 0.0112627)
(-5.12061e-05 -0.000122675 0.0112762)
(-8.42826e-05 -0.000122289 0.0113041)
(-0.000118788 -0.000118815 0.0113448)
(-0.00015048 -0.000118012 0.0113961)
(0.000147441 -0.000147522 0.0114378)
(0.000117903 -0.000150502 0.011396)
(8.46394e-05 -0.000157879 0.0113586)
(5.12395e-05 -0.000159944 0.0113309)
(1.62482e-05 -0.000162285 0.0113171)
(-1.63516e-05 -0.000162273 0.0113171)
(-5.13363e-05 -0.000159931 0.0113309)
(-8.47245e-05 -0.00015788 0.0113587)
(-0.00011797 -0.000150507 0.011396)
(-0.000147481 -0.000147551 0.0114378)
(0.000123642 0.000123637 0.0116059)
(9.93899e-05 0.000132144 0.0115759)
(7.27216e-05 0.000140726 0.0115459)
(4.4245e-05 0.000144887 0.0115223)
(1.42372e-05 0.000147721 0.0115099)
(-1.43474e-05 0.000147716 0.0115099)
(-4.43446e-05 0.000144909 0.0115224)
(-7.27781e-05 0.000140722 0.011546)
(-9.94226e-05 0.000132146 0.0115761)
(-0.000123639 0.000123618 0.0116059)
(0.000132157 9.93947e-05 0.0115759)
(0.000103805 0.000103784 0.0115325)
(7.44597e-05 0.000109259 0.0114967)
(4.51598e-05 0.000111044 0.0114702)
(1.45526e-05 0.000112414 0.0114566)
(-1.46546e-05 0.000112397 0.0114566)
(-4.52275e-05 0.00011107 0.0114704)
(-7.45056e-05 0.000109264 0.0114969)
(-0.000103828 0.000103813 0.0115327)
(-0.000132148 9.94054e-05 0.011576)
(0.000140727 7.27079e-05 0.0115458)
(0.000109262 7.44463e-05 0.0114967)
(7.91566e-05 7.91503e-05 0.0114575)
(4.7087e-05 8.0079e-05 0.01143)
(1.5596e-05 8.11081e-05 0.0114163)
(-1.56827e-05 8.11093e-05 0.0114164)
(-4.71586e-05 8.00792e-05 0.0114301)
(-7.91844e-05 7.91689e-05 0.0114576)
(-0.00010928 7.44801e-05 0.0114967)
(-0.000140733 7.27322e-05 0.0115459)
(0.000144893 4.42692e-05 0.0115223)
(0.000111052 4.51573e-05 0.0114702)
(8.00695e-05 4.71028e-05 0.01143)
(4.74156e-05 4.74086e-05 0.011403)
(1.57766e-05 4.77971e-05 0.0113901)
(-1.58349e-05 4.78111e-05 0.0113901)
(-4.74704e-05 4.74185e-05 0.0114031)
(-8.01048e-05 4.71131e-05 0.01143)
(-0.000111074 4.51681e-05 0.0114703)
(-0.000144916 4.4279e-05 0.0115223)
(0.000147699 1.42627e-05 0.0115099)
(0.000112377 1.45811e-05 0.0114566)
(8.11055e-05 1.5614e-05 0.0114163)
(4.77973e-05 1.57822e-05 0.0113901)
(1.60113e-05 1.60133e-05 0.0113776)
(-1.60612e-05 1.60214e-05 0.0113777)
(-4.78485e-05 1.57935e-05 0.0113901)
(-8.11582e-05 1.56242e-05 0.0114163)
(-0.000112426 1.45884e-05 0.0114566)
(-0.000147731 1.42645e-05 0.0115098)
(0.000147686 -1.43106e-05 0.0115099)
(0.000112379 -1.46167e-05 0.0114567)
(8.11074e-05 -1.56638e-05 0.0114164)
(4.77987e-05 -1.58465e-05 0.0113901)
(1.59978e-05 -1.60787e-05 0.0113777)
(-1.60766e-05 -1.60814e-05 0.0113777)
(-4.78284e-05 -1.58364e-05 0.01139)
(-8.11452e-05 -1.5656e-05 0.0114163)
(-0.00011242 -1.46181e-05 0.0114567)
(-0.000147732 -1.42995e-05 0.0115099)
(0.000144846 -4.43066e-05 0.0115223)
(0.000111019 -4.52009e-05 0.0114704)
(8.00444e-05 -4.71488e-05 0.01143)
(4.74024e-05 -4.74735e-05 0.0114031)
(1.57719e-05 -4.78632e-05 0.0113901)
(-1.58314e-05 -4.78483e-05 0.01139)
(-4.74529e-05 -4.74537e-05 0.011403)
(-8.00906e-05 -4.71406e-05 0.01143)
(-0.000111061 -4.51794e-05 0.0114703)
(-0.000144894 -4.42716e-05 0.0115223)
(0.00014067 -7.2744e-05 0.011546)
(0.000109216 -7.45068e-05 0.0114968)
(7.91269e-05 -7.92076e-05 0.0114575)
(4.7081e-05 -8.01503e-05 0.01143)
(1.56073e-05 -8.117e-05 0.0114163)
(-1.56496e-05 -8.11678e-05 0.0114163)
(-4.71159e-05 -8.01023e-05 0.01143)
(-7.91665e-05 -7.91829e-05 0.0114575)
(-0.00010925 -7.44397e-05 0.0114967)
(-0.000140717 -7.26745e-05 0.0115458)
(0.000132069 -9.94255e-05 0.0115761)
(0.000103744 -0.000103848 0.0115327)
(7.44075e-05 -0.000109326 0.0114968)
(4.51407e-05 -0.0001111 0.0114703)
(1.45724e-05 -0.000112446 0.0114566)
(-1.46012e-05 -0.000112454 0.0114566)
(-4.51556e-05 -0.000111079 0.0114702)
(-7.44376e-05 -0.000109284 0.0114966)
(-0.000103768 -0.000103759 0.0115324)
(-0.00013212 -9.93313e-05 0.0115758)
(0.000123571 -0.000123657 0.011606)
(9.9359e-05 -0.000132182 0.0115761)