/*--------------------------------*- C++ -*----------------------------------*\
| =========                 |                                                 |
| \\      /  F ield         | OpenFOAM: The Open Source CFD Toolbox           |
|  \\    /   O peration     | Version:  2406                                  |
|   \\  /    A nd           | Website:  www.openfoam.com                      |
|    \\/     M anipulation  |                                                 |
\*---------------------------------------------------------------------------*/
FoamFile
{
    version     2.0;
    format      ascii;
    arch        "LSB;label=32;scalar=64";
    class       surfaceScalarField;
    location    "3.5";
    object      phi;
}
// * * * * * * * * * * * * * * * * * * * * * * * * * * * * * * * * * * * * * //

dimensions      [0 3 -1 0 0 0 0];

oriented        oriented;

internalField   nonuniform List<scalar> 
43700
(
1.81569e-08
1.81582e-08
4.79355e-07
-2.28255e-08
-2.28257e-08
1.35065e-08
1.66635e-08
5.18564e-07
-2.11924e-08
8.95213e-09
1.54288e-08
5.48371e-07
-1.98157e-08
4.47816e-09
1.47268e-08
5.68464e-07
-1.9004e-08
-1.82323e-13
1.43092e-08
5.78558e-07
-1.8461e-08
-4.47788e-09
1.43083e-08
5.7856e-07
-1.84612e-08
-8.95297e-09
1.47262e-08
5.68465e-07
-1.90038e-08
-1.35076e-08
1.54282e-08
5.48371e-07
-1.98158e-08
-1.81577e-08
1.6664e-08
5.18565e-07
-2.11933e-08
1.81576e-08
4.79356e-07
-2.28255e-08
-2.28247e-08
1.66629e-08
1.35076e-08
5.18565e-07
-2.11933e-08
1.22927e-08
1.22944e-08
5.54582e-07
8.05149e-09
1.13381e-08
5.82025e-07
3.99902e-09
1.07457e-08
6.00532e-07
-1.20312e-12
1.0427e-08
6.09854e-07
-3.99852e-09
1.04273e-08
6.09853e-07
-8.05209e-09
1.07447e-08
6.00532e-07
-1.22936e-08
1.13378e-08
5.82025e-07
-1.66628e-08
1.22949e-08
5.54582e-07
1.35067e-08
5.18565e-07
-2.11924e-08
1.54284e-08
8.95295e-09
5.48371e-07
-1.98161e-08
1.13368e-08
8.05194e-09
5.82025e-07
7.41627e-09
7.41643e-09
6.07714e-07
3.67392e-09
7.00498e-09
6.25045e-07
-6.30726e-13
6.7982e-09
6.3378e-07
-3.67519e-09
6.79931e-09
6.33781e-07
-7.41712e-09
7.00543e-09
6.25045e-07
-1.13373e-08
7.41607e-09
6.07715e-07
-1.54302e-08
8.0516e-09
5.82025e-07
8.95373e-09
5.48371e-07
-1.98165e-08
1.47268e-08
4.47732e-09
5.68465e-07
-1.90035e-08
1.07454e-08
3.999e-09
6.00531e-07
7.00486e-09
3.67511e-09
6.25045e-07
3.45726e-09
3.45904e-09
6.41598e-07
-1.31812e-13
3.35446e-09
6.49946e-07
-3.4598e-09
3.35413e-09
6.49945e-07
-7.0056e-09
3.45926e-09
6.41597e-07
-1.07455e-08
3.67485e-09
6.25045e-07
-1.4727e-08
3.99924e-09
6.00532e-07
4.47857e-09
5.68464e-07
-1.90045e-08
1.43094e-08
-6.59465e-13
5.78559e-07
-1.84617e-08
1.04271e-08
-6.54412e-13
6.09854e-07
6.79867e-09
-1.30762e-12
6.3378e-07
3.35335e-09
-4.75097e-13
6.49946e-07
-8.11183e-13
-5.44543e-13
6.58102e-07
-3.35501e-09
-5.08412e-13
6.58101e-07
-6.79959e-09
3.93516e-13
6.49946e-07
-1.04266e-08
1.54815e-13
6.3378e-07
-1.43092e-08
-1.0539e-13
6.09854e-07
-1.92909e-14
5.78559e-07
-1.84625e-08
1.43096e-08
-4.47763e-09
5.7856e-07
-1.84618e-08
1.04261e-08
-3.99986e-09
6.09853e-07
6.79873e-09
-3.67457e-09
6.3378e-07
3.35349e-09
-3.45827e-09
6.49946e-07
-6.4581e-13
-3.35431e-09
6.581e-07
-3.35443e-09
-3.35387e-09
6.58101e-07
-6.79978e-09
-3.45805e-09
6.49945e-07
-1.04273e-08
-3.67393e-09
6.33781e-07
-1.43096e-08
-3.99841e-09
6.09853e-07
-4.47649e-09
5.78559e-07
-1.84619e-08
1.47276e-08
-8.95291e-09
5.68464e-07
-1.90034e-08
1.07457e-08
-8.05246e-09
6.00532e-07
7.00534e-09
-7.41716e-09
6.25045e-07
3.45862e-09
-7.00599e-09
6.41598e-07
3.67889e-13
-6.79916e-09
6.49945e-07
-3.45914e-09
-6.80025e-09
6.49946e-07
-7.0062e-09
-7.00575e-09
6.41598e-07
-1.07466e-08
-7.41692e-09
6.25045e-07
-1.47271e-08
-8.05114e-09
6.00531e-07
-8.95313e-09
5.68465e-07
-1.90048e-08
1.54294e-08
-1.35068e-08
5.48372e-07
-1.98161e-08
1.13374e-08
-1.22952e-08
5.82026e-07
7.41692e-09
-1.13368e-08
6.07715e-07
3.6746e-09
-1.07458e-08
6.25045e-07
-2.22232e-13
-1.04269e-08
6.3378e-07
-3.67473e-09
-1.04278e-08
6.3378e-07
-7.41727e-09
-1.07458e-08
6.25046e-07
-1.13377e-08
-1.13371e-08
6.07714e-07
-1.54298e-08
-1.22944e-08
5.82026e-07
-1.35068e-08
5.4837e-07
-1.98169e-08
1.66632e-08
-1.81566e-08
5.18565e-07
-2.11934e-08
1.22951e-08
-1.66628e-08
5.54581e-07
8.05185e-09
-1.54296e-08
5.82025e-07
3.99882e-09
-1.47281e-08
6.00532e-07
-2.796e-13
-1.43095e-08
6.09853e-07
-3.99776e-09
-1.43097e-08
6.09853e-07
-8.05217e-09
-1.47284e-08
6.00533e-07
-1.22941e-08
-1.54307e-08
5.82025e-07
-1.66638e-08
-1.66639e-08
5.54582e-07
-1.81577e-08
5.18565e-07
-2.11941e-08
1.81574e-08
4.79356e-07
-2.28258e-08
-2.28252e-08
1.35063e-08
5.18564e-07
-2.1193e-08
8.9533e-09
5.48371e-07
-1.98168e-08
4.47825e-09
5.68464e-07
-1.90045e-08
2.04145e-13
5.78559e-07
-1.84614e-08
-4.47778e-09
5.7856e-07
-1.84618e-08
-8.9534e-09
5.68464e-07
-1.90048e-08
-1.3506e-08
5.48371e-07
-1.98171e-08
-1.81567e-08
5.18565e-07
-2.11929e-08
4.79356e-07
-2.28271e-08
-2.28263e-08
2.963e-08
2.96296e-08
4.90494e-07
-3.51988e-08
-3.51993e-08
2.16083e-08
2.4911e-08
5.29874e-07
-2.81989e-08
1.44325e-08
2.30678e-08
5.59808e-07
-2.73263e-08
7.19602e-09
2.15799e-08
5.79986e-07
-2.58654e-08
-7.27614e-13
2.09011e-08
5.9011e-07
-2.52553e-08
-7.19675e-09
2.09013e-08
5.9011e-07
-2.52558e-08
-1.44324e-08
2.158e-08
5.79986e-07
-2.5865e-08
-2.16086e-08
2.30675e-08
5.59808e-07
-2.73257e-08
-2.96299e-08
2.491e-08
5.29874e-07
-2.81985e-08
2.96299e-08
4.90494e-07
-3.51987e-08
-3.5198e-08
2.49101e-08
2.16092e-08
5.29874e-07
-2.81991e-08
1.92041e-08
1.92036e-08
5.65996e-07
1.31286e-08
1.77249e-08
5.93442e-07
6.63148e-09
1.6661e-08
6.1195e-07
-2.44286e-13
1.61318e-08
6.21254e-07
-6.63182e-09
1.61318e-08
6.21254e-07
-1.31288e-08
1.66603e-08
6.1195e-07
-1.92034e-08
1.7725e-08
5.93442e-07
-2.49098e-08
1.92029e-08
5.65997e-07
2.16078e-08
5.29874e-07
-2.81982e-08
2.30673e-08
1.44319e-08
5.59808e-07
-2.73266e-08
1.77251e-08
1.31295e-08
5.93442e-07
1.20478e-08
1.20488e-08
6.19067e-07
6.08516e-09
1.13281e-08
6.36341e-07
2.22582e-13
1.0959e-08
6.45038e-07
-6.08518e-09
1.09587e-08
6.45039e-07
-1.20487e-08
1.1327e-08
6.36341e-07
-1.77244e-08
1.20487e-08
6.19067e-07
-2.30667e-08
1.3129e-08
5.93442e-07
1.44317e-08
5.59808e-07
-2.73261e-08
2.15804e-08
7.19711e-09
5.79986e-07
-2.5865e-08
1.6659e-08
6.63152e-09
6.1195e-07
1.13267e-08
6.0857e-09
6.36341e-07
5.72697e-09
5.72751e-09
6.52797e-07
9.58799e-13
5.54079e-09
6.6109e-07
-5.72693e-09
5.54146e-09
6.61091e-07
-1.13277e-08
5.72755e-09
6.52798e-07
-1.66594e-08
6.08521e-09
6.36342e-07
-2.15795e-08
6.63167e-09
6.11949e-07
7.19616e-09
5.79986e-07
-2.58656e-08
2.0901e-08
-5.62548e-13
5.90109e-07
-2.52553e-08
1.61314e-08
-9.56867e-14
6.21255e-07
1.09577e-08
4.44284e-13
6.45038e-07
5.54047e-09
-2.58802e-13
6.61091e-07
-1.49993e-13
-4.68856e-14
6.69182e-07
-5.54083e-09
8.38443e-13
6.69182e-07
-1.09587e-08
8.08849e-13
6.61091e-07
-1.6132e-08
5.97127e-13
6.45038e-07
-2.09003e-08
1.05444e-12
6.21254e-07
3.70609e-13
5.9011e-07
-2.5255e-08
2.09012e-08
-7.1961e-09
5.9011e-07
-2.52548e-08
1.61318e-08
-6.63207e-09
6.21254e-07
1.09581e-08
-6.085e-09
6.45038e-07
5.54072e-09
-5.72777e-09
6.6109e-07
-3.40929e-13
-5.54115e-09
6.69182e-07
-5.54068e-09
-5.5409e-09
6.69183e-07
-1.09586e-08
-5.72668e-09
6.6109e-07
-1.61312e-08
-6.0844e-09
6.45039e-07
-2.09005e-08
-6.63046e-09
6.21255e-07
-7.19547e-09
5.90109e-07
-2.52553e-08
2.15794e-08
-1.44323e-08
5.79986e-07
-2.58651e-08
1.66599e-08
-1.31291e-08
6.11948e-07
1.13275e-08
-1.20487e-08
6.36342e-07
5.72658e-09
-1.13275e-08
6.52798e-07
-3.46365e-13
-1.09579e-08
6.61091e-07
-5.72633e-09
-1.09581e-08
6.6109e-07
-1.13265e-08
-1.13267e-08
6.52798e-07
-1.66589e-08
-1.2048e-08
6.3634e-07
-2.15789e-08
-1.31286e-08
6.11949e-07
-1.44319e-08
5.79987e-07
-2.58659e-08
2.3066e-08
-2.16092e-08
5.59808e-07
-2.73263e-08
1.77237e-08
-1.92029e-08
5.93442e-07
1.20483e-08
-1.7725e-08
6.19066e-07
6.0848e-09
-1.66592e-08
6.36342e-07
3.74296e-13
-1.61316e-08
6.45038e-07
-6.08402e-09
-1.61309e-08
6.45038e-07
-1.20476e-08
-1.66595e-08
6.36342e-07
-1.77245e-08
-1.77243e-08
6.19067e-07
-2.30664e-08
-1.92027e-08
5.93442e-07
-2.16094e-08
5.59808e-07
-2.73262e-08
2.49099e-08
-2.96296e-08
5.29874e-07
-2.81983e-08
1.92032e-08
-2.49104e-08
5.65996e-07
1.31282e-08
-2.30676e-08
5.93442e-07
6.63125e-09
-2.15795e-08
6.11949e-07
5.17186e-13
-2.09015e-08
6.21254e-07
-6.63164e-09
-2.0901e-08
6.21254e-07
-1.31282e-08
-2.15796e-08
6.1195e-07
-1.92036e-08
-2.3067e-08
5.93442e-07
-2.4911e-08
-2.49104e-08
5.65996e-07
-2.96297e-08
5.29874e-07
-2.81989e-08
2.9629e-08
4.90494e-07
-3.51989e-08
-3.5198e-08
2.16088e-08
5.29873e-07
-2.81995e-08
1.4431e-08
5.59808e-07
-2.73263e-08
7.19552e-09
5.79986e-07
-2.58652e-08
2.49408e-13
5.90109e-07
-2.52547e-08
-7.19571e-09
5.9011e-07
-2.5254e-08
-1.4431e-08
5.79986e-07
-2.58656e-08
-2.16095e-08
5.59808e-07
-2.73269e-08
-2.96302e-08
5.29874e-07
-2.81987e-08
4.90494e-07
-3.51975e-08
-3.5199e-08
3.39082e-08
3.39093e-08
5.02238e-07
-3.97812e-08
-3.97813e-08
2.51513e-08
2.88482e-08
5.42154e-07
-3.23704e-08
1.69771e-08
2.71046e-08
5.72475e-07
-3.15966e-08
8.48351e-09
2.53451e-08
5.92889e-07
-2.97538e-08
-3.87033e-13
2.4651e-08
6.03126e-07
-2.91841e-08
-8.48359e-09
2.46509e-08
6.03126e-07
-2.91835e-08
-1.69767e-08
2.53449e-08
5.92888e-07
-2.97533e-08
-2.51514e-08
2.71052e-08
5.72475e-07
-3.1597e-08
-3.39093e-08
2.88486e-08
5.42155e-07
-3.2371e-08
3.39096e-08
5.02237e-07
-3.97814e-08
-3.9782e-08
2.88479e-08
2.51511e-08
5.42154e-07
-3.23704e-08
2.24826e-08
2.24833e-08
5.78726e-07
1.55377e-08
2.1043e-08
6.06448e-07
7.87985e-09
1.98299e-08
6.25123e-07
-6.30359e-14
1.92875e-08
6.34498e-07
-7.88057e-09
1.92882e-08
6.34497e-07
-1.55392e-08
1.98293e-08
6.25123e-07
-2.24827e-08
2.10427e-08
6.06448e-07
-2.8848e-08
2.24831e-08
5.78727e-07
2.51518e-08
5.42154e-07
-3.23714e-08
2.71055e-08
1.6977e-08
5.72476e-07
-3.15972e-08
2.10431e-08
1.55386e-08
6.06448e-07
1.44407e-08
1.4441e-08
6.32271e-07
7.31623e-09
1.36315e-08
6.49664e-07
-7.89338e-13
1.3235e-08
6.58407e-07
-7.31707e-09
1.32358e-08
6.58408e-07
-1.4441e-08
1.36322e-08
6.49664e-07
-2.10433e-08
1.44405e-08
6.32272e-07
-2.71063e-08
1.55382e-08
6.06448e-07
1.69767e-08
5.72475e-07
-3.15982e-08
2.53447e-08
8.48308e-09
5.92889e-07
-2.97532e-08
1.98297e-08
7.87962e-09
6.25123e-07
1.36315e-08
7.3168e-09
6.49663e-07
6.92992e-09
6.92942e-09
6.66202e-07
-6.66495e-13
6.72948e-09
6.74526e-07
-6.93006e-09
6.72977e-09
6.74526e-07
-1.3632e-08
6.93028e-09
6.66201e-07
-1.98302e-08
7.31684e-09
6.49663e-07
-2.53454e-08
7.87893e-09
6.25123e-07
8.48289e-09
5.92889e-07
-2.97543e-08
2.46511e-08
-6.67538e-13
6.03126e-07
-2.91841e-08
1.9288e-08
4.36647e-13
6.34497e-07
1.32355e-08
-5.79768e-13
6.58408e-07
6.73027e-09
-3.74107e-13
6.74526e-07
8.46354e-16
-7.52364e-14
6.82642e-07
-6.73051e-09
-9.52164e-13
6.82643e-07
-1.32363e-08
-1.00335e-12
6.74526e-07
-1.92889e-08
-8.70388e-13
6.58407e-07
-2.46517e-08
-6.70862e-13
6.34497e-07
-3.66812e-14
6.03125e-07
-2.91844e-08
2.46515e-08
-8.48388e-09
6.03125e-07
-2.91842e-08
1.92879e-08
-7.88057e-09
6.34498e-07
1.32354e-08
-7.31727e-09
6.58408e-07
6.72981e-09
-6.93082e-09
6.74526e-07
-6.54736e-13
-6.73092e-09
6.82643e-07
-6.73121e-09
-6.73123e-09
6.82644e-07
-1.32366e-08
-6.93071e-09
6.74526e-07
-1.92883e-08
-7.31748e-09
6.58409e-07
-2.46513e-08
-7.88039e-09
6.34497e-07
-8.48432e-09
6.03126e-07
-2.91852e-08
2.53451e-08
-1.69776e-08
5.92889e-07
-2.97543e-08
1.9829e-08
-1.55389e-08
6.25122e-07
1.36313e-08
-1.44413e-08
6.49664e-07
6.92887e-09
-1.36316e-08
6.66201e-07
-9.8475e-13
-1.32361e-08
6.74526e-07
-6.92953e-09
-1.32362e-08
6.74525e-07
-1.36326e-08
-1.3633e-08
6.66202e-07
-1.98304e-08
-1.44414e-08
6.49663e-07
-2.53452e-08
-1.55395e-08
6.25124e-07
-1.69777e-08
5.92889e-07
-2.97549e-08
2.7105e-08
-2.51514e-08
5.72474e-07
-3.15965e-08
2.10441e-08
-2.24828e-08
6.06448e-07
1.44412e-08
-2.1044e-08
6.32271e-07
7.31643e-09
-1.98302e-08
6.49664e-07
-9.02079e-13
-1.92885e-08
6.58408e-07
-7.31727e-09
-1.92879e-08
6.58408e-07
-1.44425e-08
-1.98303e-08
6.49663e-07
-2.10442e-08
-2.10434e-08
6.32272e-07
-2.71048e-08
-2.2483e-08
6.06448e-07
-2.51517e-08
5.72474e-07
-3.15977e-08
2.88486e-08
-3.39098e-08
5.42155e-07
-3.23711e-08
2.24826e-08
-2.88482e-08
5.78727e-07
1.55386e-08
-2.71048e-08
6.06448e-07
7.87994e-09
-2.53456e-08
6.25123e-07
-4.53176e-13
-2.46514e-08
6.34497e-07
-7.88088e-09
-2.46512e-08
6.34498e-07
-1.55391e-08
-2.53446e-08
6.25123e-07
-2.24828e-08
-2.71052e-08
6.06448e-07
-2.88482e-08
-2.88484e-08
5.78727e-07
-3.39099e-08
5.42154e-07
-3.2371e-08
3.39095e-08
5.02237e-07
-3.97814e-08
-3.97815e-08
2.51514e-08
5.42154e-07
-3.23711e-08
1.69772e-08
5.72475e-07
-3.15981e-08
8.48343e-09
5.92888e-07
-2.9754e-08
3.97741e-13
6.03126e-07
-2.91841e-08
-8.48315e-09
6.03126e-07
-2.9184e-08
-1.69772e-08
5.92889e-07
-2.97542e-08
-2.51517e-08
5.72475e-07
-3.15976e-08
-3.39101e-08
5.42155e-07
-3.23712e-08
5.02237e-07
-3.97821e-08
-3.9781e-08
3.38747e-08
3.38745e-08
5.13719e-07
-3.96155e-08
-3.96154e-08
2.55647e-08
2.94274e-08
5.54339e-07
-3.3302e-08
1.7362e-08
2.80165e-08
5.85183e-07
-3.25225e-08
8.70406e-09
2.6366e-08
6.05915e-07
-3.07346e-08
2.0026e-13
2.57853e-08
6.16318e-07
-3.02717e-08
-8.70559e-09
2.57851e-08
6.16317e-07
-3.02725e-08
-1.73618e-08
2.63659e-08
6.05913e-07
-3.07354e-08
-2.55639e-08
2.80173e-08
5.85183e-07
-3.25231e-08
-3.38734e-08
2.94277e-08
5.54339e-07
-3.3303e-08
3.38739e-08
5.13719e-07
-3.96149e-08
-3.96147e-08
2.94278e-08
2.55638e-08
5.5434e-07
-3.33037e-08
2.30369e-08
2.30356e-08
5.91509e-07
1.59614e-08
2.18642e-08
6.19676e-07
8.1106e-09
2.07141e-08
6.38626e-07
2.60289e-14
2.02604e-08
6.48133e-07
-8.1105e-09
2.02605e-08
6.48133e-07
-1.59615e-08
2.07139e-08
6.38626e-07
-2.30369e-08
2.18642e-08
6.19676e-07
-2.94271e-08
2.30364e-08
5.91509e-07
2.5564e-08
5.54338e-07
-3.33028e-08
2.8017e-08
1.73619e-08
5.85183e-07
-3.25226e-08
2.18645e-08
1.59611e-08
6.19675e-07
1.50654e-08
1.50656e-08
6.45869e-07
7.64422e-09
1.43031e-08
6.63496e-07
4.31641e-13
1.39609e-08
6.72351e-07
-7.64355e-09
1.39609e-08
6.72351e-07
-1.50649e-08
1.43033e-08
6.63495e-07
-2.18642e-08
1.50657e-08
6.4587e-07
-2.80162e-08
1.59616e-08
6.19675e-07
1.73613e-08
5.85183e-07
-3.25219e-08
2.63665e-08
8.70492e-09
6.05915e-07
-3.07354e-08
2.07143e-08
8.11065e-09
6.38626e-07
1.4303e-08
7.64387e-09
6.63495e-07
7.28365e-09
7.28303e-09
6.8024e-07
-3.39373e-13
7.11033e-09
6.8866e-07
-7.28417e-09
7.11114e-09
6.8866e-07
-1.43028e-08
7.28376e-09
6.8024e-07
-2.07128e-08
7.6444e-09
6.63496e-07
-2.63655e-08
8.11078e-09
6.38626e-07
8.70463e-09
6.05914e-07
-3.07339e-08
2.57854e-08
1.20451e-13
6.16319e-07
-3.02717e-08
2.02603e-08
-1.23941e-13
6.48133e-07
1.39607e-08
-9.92203e-14
6.72351e-07
7.11124e-09
-1.732e-13
6.8866e-07
3.85123e-13
5.37801e-15
6.96864e-07
-7.11139e-09
1.3787e-12
6.96866e-07
-1.39606e-08
7.22043e-13
6.8866e-07
-2.02603e-08
-3.56307e-13
6.72351e-07
-2.57851e-08
-4.39875e-13
6.48133e-07
-3.4197e-13
6.16317e-07
-3.02711e-08
2.57852e-08
-8.70585e-09
6.16317e-07
-3.02723e-08
2.02617e-08
-8.11051e-09
6.48133e-07
1.39615e-08
-7.64377e-09
6.72352e-07
7.1101e-09
-7.28306e-09
6.8866e-07
-4.07712e-13
-7.11061e-09
6.96865e-07
-7.11161e-09
-7.11035e-09
6.96865e-07
-1.39609e-08
-7.28262e-09
6.88659e-07
-2.02597e-08
-7.64322e-09
6.72352e-07
-2.57848e-08
-8.11042e-09
6.48133e-07
-8.70451e-09
6.16319e-07
-3.02716e-08
2.63662e-08
-1.73617e-08
6.05914e-07
-3.07344e-08
2.07138e-08
-1.59609e-08
6.38625e-07
1.43032e-08
-1.50646e-08
6.63496e-07
7.28359e-09
-1.43023e-08
6.8024e-07
-9.07912e-14
-1.39604e-08
6.8866e-07
-7.28414e-09
-1.39601e-08
6.88659e-07
-1.43022e-08
-1.43021e-08
6.8024e-07
-2.07134e-08
-1.50647e-08
6.63495e-07
-2.63648e-08
-1.59598e-08
6.38626e-07
-1.7361e-08
6.05914e-07
-3.07341e-08
2.80168e-08
-2.55637e-08
5.85182e-07
-3.2523e-08
2.18637e-08
-2.30363e-08
6.19676e-07
1.50658e-08
-2.18648e-08
6.45869e-07
7.64378e-09
-2.07145e-08
6.63496e-07
1.91019e-13
-2.02604e-08
6.72351e-07
-7.64338e-09
-2.02605e-08
6.72352e-07
-1.50646e-08
-2.07133e-08
6.63497e-07
-2.18636e-08
-2.18639e-08
6.45869e-07
-2.80159e-08
-2.30357e-08
6.19676e-07
-2.55636e-08
5.85182e-07
-3.25224e-08
2.94271e-08
-3.38742e-08
5.54339e-07
-3.33024e-08
2.30364e-08
-2.94269e-08
5.91509e-07
1.5961e-08
-2.80164e-08
6.19676e-07
8.11074e-09
-2.63654e-08
6.38626e-07
-8.94592e-14
-2.57858e-08
6.48133e-07
-8.11041e-09
-2.57852e-08
6.48133e-07
-1.59609e-08
-2.63657e-08
6.38626e-07
-2.30355e-08
-2.80162e-08
6.19676e-07
-2.9427e-08
-2.94277e-08
5.9151e-07
-3.38727e-08
5.54339e-07
-3.33023e-08
3.38741e-08
5.1372e-07
-3.96148e-08
-3.96152e-08
2.55636e-08
5.5434e-07
-3.33029e-08
1.73612e-08
5.85183e-07
-3.25218e-08
8.70469e-09
6.05914e-07
-3.07343e-08
6.41498e-13
6.16317e-07
-3.02724e-08
-8.70433e-09
6.16318e-07
-3.02722e-08
-1.73621e-08
6.05915e-07
-3.07345e-08
-2.55641e-08
5.85183e-07
-3.2521e-08
-3.3874e-08
5.5434e-07
-3.33029e-08
5.1372e-07
-3.96145e-08
-3.96143e-08
3.09748e-08
3.09756e-08
5.24236e-07
-3.62335e-08
-3.6233e-08
2.37756e-08
2.76833e-08
5.65684e-07
-3.1829e-08
1.62198e-08
2.67196e-08
5.97114e-07
-3.10941e-08
8.16524e-09
2.54261e-08
6.18207e-07
-2.96641e-08
1.3323e-13
2.50195e-08
6.28801e-07
-2.93377e-08
-8.16458e-09
2.50195e-08
6.28801e-07
-2.93381e-08
-1.62191e-08
2.54257e-08
6.18207e-07
-2.96638e-08
-2.37757e-08
2.67197e-08
5.97115e-07
-3.10939e-08
-3.09749e-08
2.76831e-08
5.65684e-07
-3.18288e-08
3.09756e-08
5.24236e-07
-3.62339e-08
-3.62337e-08
2.7683e-08
2.37764e-08
5.65685e-07
-3.18292e-08
2.16798e-08
2.16797e-08
6.03515e-07
1.49941e-08
2.08824e-08
6.322e-07
7.62472e-09
1.99468e-08
6.51474e-07
-1.83686e-13
1.96319e-08
6.61147e-07
-7.62522e-09
1.96312e-08
6.61147e-07
-1.49935e-08
1.99477e-08
6.51473e-07
-2.16801e-08
2.08814e-08
6.322e-07
-2.76824e-08
2.16802e-08
6.03515e-07
2.37756e-08
5.65683e-07
-3.18279e-08
2.67196e-08
1.62186e-08
5.97115e-07
-3.10938e-08
2.08823e-08
1.4994e-08
6.32199e-07
1.43964e-08
1.43973e-08
6.58839e-07
7.30739e-09
1.37786e-08
6.76754e-07
-6.50861e-13
1.35356e-08
6.85755e-07
-7.30791e-09
1.35356e-08
6.85754e-07
-1.4397e-08
1.37784e-08
6.76753e-07
-2.08815e-08
1.43968e-08
6.58839e-07
-2.67196e-08
1.49939e-08
6.32199e-07
1.62189e-08
5.97114e-07
-3.10945e-08
2.54267e-08
8.16481e-09
6.18207e-07
-2.96639e-08
1.99469e-08
7.62473e-09
6.51474e-07
1.37783e-08
7.3081e-09
6.76754e-07
7.01513e-09
7.01627e-09
6.93767e-07
4.59527e-13
6.89286e-09
7.02318e-07
-7.01544e-09
6.89263e-09
7.02319e-07
-1.37783e-08
7.01592e-09
6.93767e-07
-1.99477e-08
7.30771e-09
6.76754e-07
-2.5427e-08
7.62499e-09
6.51473e-07
8.16422e-09
6.18207e-07
-2.96644e-08
2.50205e-08
-1.82431e-14
6.28802e-07
-2.93379e-08
1.96322e-08
-8.78484e-14
6.61146e-07
1.35353e-08
-1.17104e-12
6.85755e-07
6.89227e-09
-7.07671e-13
7.02318e-07
-2.07312e-13
8.2384e-14
7.10649e-07
-6.89306e-09
-1.44698e-14
7.1065e-07
-1.35359e-08
9.18192e-13
7.02319e-07
-1.96317e-08
3.89217e-13
6.85755e-07
-2.50203e-08
-3.51269e-13
6.61147e-07
-3.22911e-13
6.288e-07
-2.9338e-08
2.50202e-08
-8.16503e-09
6.28801e-07
-2.93383e-08
1.96321e-08
-7.62466e-09
6.61146e-07
1.35354e-08
-7.30726e-09
6.85755e-07
6.89224e-09
-7.01539e-09
7.02319e-07
-5.1904e-13
-6.89278e-09
7.1065e-07
-6.89353e-09
-6.89203e-09
7.1065e-07
-1.35369e-08
-7.0167e-09
7.02318e-07
-1.96316e-08
-7.30693e-09
6.85755e-07
-2.50209e-08
-7.62536e-09
6.61147e-07
-8.16499e-09
6.28802e-07
-2.93385e-08
2.54261e-08
-1.62195e-08
6.18206e-07
-2.9664e-08
1.99469e-08
-1.49942e-08
6.51473e-07
1.37792e-08
-1.43973e-08
6.76754e-07
7.01526e-09
-1.37794e-08
6.93767e-07
2.45375e-13
-1.3536e-08
7.02318e-07
-7.01569e-09
-1.35358e-08
7.02318e-07
-1.37786e-08
-1.37787e-08
6.93766e-07
-1.99481e-08
-1.43976e-08
6.76754e-07
-2.54274e-08
-1.49941e-08
6.51474e-07
-1.62197e-08
6.18207e-07
-2.96645e-08
2.67202e-08
-2.37753e-08
5.97114e-07
-3.10949e-08
2.08822e-08
-2.16801e-08
6.322e-07
1.4397e-08
-2.08824e-08
6.58839e-07
7.30672e-09
-1.99476e-08
6.76754e-07
-6.84485e-13
-1.96316e-08
6.85754e-07
-7.30761e-09
-1.96315e-08
6.85755e-07
-1.43976e-08
-1.99477e-08
6.76754e-07
-2.08827e-08
-2.08825e-08
6.58839e-07
-2.672e-08
-2.16804e-08
6.322e-07
-2.37768e-08
5.97114e-07
-3.10949e-08
2.76835e-08
-3.09759e-08
5.65684e-07
-3.18292e-08
2.16805e-08
-2.76834e-08
6.03515e-07
1.49937e-08
-2.67195e-08
6.322e-07
7.62522e-09
-2.54264e-08
6.51473e-07
8.35247e-13
-2.50202e-08
6.61146e-07
-7.62552e-09
-2.50202e-08
6.61147e-07
-1.49948e-08
-2.54269e-08
6.51474e-07
-2.16813e-08
-2.67199e-08
6.322e-07
-2.7684e-08
-2.7684e-08
6.03516e-07
-3.09761e-08
5.65684e-07
-3.1829e-08
3.09765e-08
5.24237e-07
-3.62344e-08
-3.62343e-08
2.37766e-08
5.65685e-07
-3.18282e-08
1.62193e-08
5.97114e-07
-3.10936e-08
8.16548e-09
6.18207e-07
-2.96642e-08
1.79989e-13
6.288e-07
-2.93381e-08
-8.16488e-09
6.28801e-07
-2.93381e-08
-1.62191e-08
6.18207e-07
-2.96643e-08
-2.37767e-08
5.97115e-07
-3.10945e-08
-3.09765e-08
5.65685e-07
-3.18282e-08
5.24236e-07
-3.6234e-08
-3.62334e-08
2.70242e-08
2.70226e-08
5.33467e-07
-3.16384e-08
-3.16395e-08
2.10726e-08
2.4931e-08
5.75841e-07
-2.91367e-08
1.44274e-08
2.43823e-08
6.07883e-07
-2.85059e-08
7.29505e-09
2.35252e-08
6.29358e-07
-2.75427e-08
-4.94702e-13
2.32935e-08
6.4015e-07
-2.73479e-08
-7.29548e-09
2.32936e-08
6.40152e-07
-2.73491e-08
-1.44282e-08
2.35256e-08
6.29357e-07
-2.75438e-08
-2.10723e-08
2.4383e-08
6.07883e-07
-2.85066e-08
-2.70231e-08
2.4931e-08
5.75841e-07
-2.91369e-08
2.7024e-08
5.33467e-07
-3.16395e-08
-3.16384e-08
2.4931e-08
2.10719e-08
5.75841e-07
-2.91362e-08
1.95066e-08
1.95054e-08
6.14366e-07
1.344e-08
1.90622e-08
6.43586e-07
6.83606e-09
1.83983e-08
6.63204e-07
-1.2548e-12
1.82187e-08
6.73059e-07
-6.8367e-09
1.82186e-08
6.73059e-07
-1.34403e-08
1.83982e-08
6.63204e-07
-1.95059e-08
1.90625e-08
6.43587e-07
-2.49306e-08
1.95062e-08
6.14365e-07
2.10728e-08
5.75841e-07
-2.91362e-08
2.43827e-08
1.44271e-08
6.07883e-07
-2.85063e-08
1.90628e-08
1.34399e-08
6.43586e-07
1.31311e-08
1.31314e-08
6.70702e-07
6.66515e-09
1.26873e-08
6.88931e-07
2.30791e-13
1.25466e-08
6.98092e-07
-6.66594e-09
1.25469e-08
6.98092e-07
-1.31306e-08
1.26863e-08
6.8893e-07
-1.90619e-08
1.31311e-08
6.70703e-07
-2.43824e-08
1.34403e-08
6.43587e-07
1.44276e-08
6.07883e-07
-2.85071e-08
2.3526e-08
7.29485e-09
6.29357e-07
-2.75436e-08
1.83985e-08
6.83662e-09
6.63205e-07
1.26871e-08
6.66566e-09
6.88931e-07
6.45206e-09
6.45173e-09
7.06237e-07
8.67505e-13
6.37985e-09
7.14937e-07
-6.45208e-09
6.38086e-09
7.14937e-07
-1.26876e-08
6.45225e-09
7.06237e-07
-1.83981e-08
6.66679e-09
6.88931e-07
-2.35258e-08
6.83721e-09
6.63204e-07
7.29503e-09
6.29357e-07
-2.75437e-08
2.32939e-08
-4.02889e-13
6.40151e-07
-2.73473e-08
1.82188e-08
-4.05547e-13
6.73058e-07
1.25469e-08
-6.85857e-13
6.98092e-07
6.38034e-09
-5.17928e-13
7.14937e-07
1.24056e-12
-3.77717e-13
7.23409e-07
-6.38016e-09
8.7008e-13
7.23411e-07
-1.25474e-08
7.83788e-13
7.14938e-07
-1.82194e-08
7.09517e-13
6.98092e-07
-2.32935e-08
7.97622e-13
6.73058e-07
-6.03774e-13
6.4015e-07
-2.73478e-08
2.32936e-08
-7.29597e-09
6.40151e-07
-2.73475e-08
1.82185e-08
-6.83638e-09
6.73058e-07
1.25467e-08
-6.66472e-09
6.98092e-07
6.3793e-09
-6.45118e-09
7.14938e-07
-3.41402e-13
-6.38042e-09
7.2341e-07
-6.37947e-09
-6.37967e-09
7.23409e-07
-1.25471e-08
-6.45142e-09
7.14937e-07
-1.8219e-08
-6.66514e-09
6.98092e-07
-2.32937e-08
-6.8369e-09
6.73058e-07
-7.29542e-09
6.40151e-07
-2.73475e-08
2.35264e-08
-1.4428e-08
6.29356e-07
-2.75435e-08
1.83982e-08
-1.34399e-08
6.63205e-07
1.26869e-08
-1.31311e-08
6.88931e-07
6.45231e-09
-1.26873e-08
7.06237e-07
9.76281e-13
-1.25466e-08
7.14936e-07
-6.45148e-09
-1.25463e-08
7.14938e-07
-1.26871e-08
-1.26874e-08
7.06236e-07
-1.83982e-08
-1.31313e-08
6.88931e-07
-2.35254e-08
-1.34397e-08
6.63204e-07
-1.44279e-08
6.29357e-07
-2.75437e-08
2.43828e-08
-2.10716e-08
6.07882e-07
-2.85066e-08
1.90624e-08
-1.95055e-08
6.43586e-07
1.31317e-08
-1.90627e-08
6.70702e-07
6.6655e-09
-1.83978e-08
6.88931e-07
-2.19228e-13
-1.82184e-08
6.98092e-07
-6.6655e-09
-1.82193e-08
6.98092e-07
-1.31301e-08
-1.83983e-08
6.8893e-07
-1.90615e-08
-1.90631e-08
6.70701e-07
-2.43818e-08
-1.95058e-08
6.43586e-07
-2.10718e-08
6.07883e-07
-2.85064e-08
2.49318e-08
-2.70231e-08
5.75841e-07
-2.91371e-08
1.95061e-08
-2.49308e-08
6.14366e-07
1.34401e-08
-2.43825e-08
6.43586e-07
6.83634e-09
-2.35252e-08
6.63204e-07
3.06319e-13
-2.32928e-08
6.73058e-07
-6.83675e-09
-2.32935e-08
6.73058e-07
-1.34395e-08
-2.35257e-08
6.63204e-07
-1.95058e-08
-2.43829e-08
6.43586e-07
-2.49307e-08
-2.49313e-08
6.14366e-07
-2.7023e-08
5.75841e-07
-2.91364e-08
2.70239e-08
5.33467e-07
-3.16389e-08
-3.16394e-08
2.1073e-08
5.75841e-07
-2.91365e-08
1.44272e-08
6.07882e-07
-2.8506e-08
7.29547e-09
6.29358e-07
-2.75437e-08
-1.78473e-13
6.40151e-07
-2.73478e-08
-7.29568e-09
6.4015e-07
-2.73471e-08
-1.44275e-08
6.29357e-07
-2.75442e-08
-2.10722e-08
6.07883e-07
-2.85064e-08
-2.70237e-08
5.75841e-07
-2.91365e-08
5.33467e-07
-3.16386e-08
-3.16384e-08
2.3247e-08
2.32466e-08
5.41431e-07
-2.72287e-08
-2.72285e-08
1.83553e-08
2.20622e-08
5.84789e-07
-2.61194e-08
1.26011e-08
2.18056e-08
6.17441e-07
-2.56092e-08
6.39534e-09
2.13184e-08
6.39298e-07
-2.50518e-08
-2.49687e-13
2.1219e-08
6.50285e-07
-2.4959e-08
-6.39603e-09
2.12186e-08
6.50286e-07
-2.49585e-08
-1.2602e-08
2.13193e-08
6.39298e-07
-2.50527e-08
-1.83553e-08
2.1806e-08
6.1744e-07
-2.56094e-08
-2.32462e-08
2.20625e-08
5.84789e-07
-2.61206e-08
2.32468e-08
5.41431e-07
-2.72289e-08
-2.72296e-08
2.20624e-08
1.83562e-08
5.84789e-07
-2.6119e-08
1.7234e-08
1.72333e-08
6.24023e-07
1.1822e-08
1.70417e-08
6.53761e-07
6.01014e-09
1.66156e-08
6.73718e-07
-1.05001e-12
1.65382e-08
6.8375e-07
-6.01118e-09
1.65386e-08
6.83749e-07
-1.1822e-08
1.66165e-08
6.73718e-07
-1.72338e-08
1.70428e-08
6.53761e-07
-2.20621e-08
1.72343e-08
6.24023e-07
1.83562e-08
5.84789e-07
-2.61194e-08
2.18061e-08
1.26023e-08
6.17441e-07
-2.56097e-08
1.70423e-08
1.18221e-08
6.53761e-07
1.172e-08
1.17207e-08
6.81346e-07
5.94909e-09
1.14316e-08
6.99886e-07
-4.67393e-13
1.13712e-08
7.09208e-07
-5.95025e-09
1.13716e-08
7.09208e-07
-1.17206e-08
1.14313e-08
6.99885e-07
-1.70426e-08
1.17213e-08
6.81346e-07
-2.18062e-08
1.18229e-08
6.53762e-07
1.26027e-08
6.17441e-07
-2.56097e-08
2.13184e-08
6.3954e-09
6.39298e-07
-2.50513e-08
1.66156e-08
6.01161e-09
6.73718e-07
1.14305e-08
5.94986e-09
6.99887e-07
5.80627e-09
5.80528e-09
7.17487e-07
6.75006e-13
5.77451e-09
7.2634e-07
-5.80637e-09
5.77505e-09
7.2634e-07
-1.14315e-08
5.80591e-09
7.17488e-07
-1.66162e-08
5.95007e-09
6.99886e-07
-2.13184e-08
6.01124e-09
6.73718e-07
6.39527e-09
6.39298e-07
-2.50519e-08
2.12183e-08
1.0382e-13
6.50285e-07
-2.4958e-08
1.65383e-08
-5.89199e-15
6.8375e-07
1.13713e-08
3.29029e-13
7.09208e-07
5.77416e-09
-2.61287e-13
7.2634e-07
-5.44334e-15
1.36793e-13
7.34958e-07
-5.77455e-09
2.14255e-13
7.3496e-07
-1.13715e-08
1.59938e-13
7.26339e-07
-1.65375e-08
1.00219e-12
7.09208e-07
-2.12188e-08
-3.70617e-13
6.8375e-07
-5.44219e-13
6.50285e-07
-2.49585e-08
2.12184e-08
-6.3946e-09
6.50286e-07
-2.49586e-08
1.65381e-08
-6.01056e-09
6.8375e-07
1.13699e-08
-5.94934e-09
7.09208e-07
5.77416e-09
-5.80587e-09
7.2634e-07
-2.4755e-13
-5.77473e-09
7.34959e-07
-5.77431e-09
-5.77479e-09
7.34958e-07
-1.13715e-08
-5.80492e-09
7.2634e-07
-1.65383e-08
-5.94938e-09
7.09209e-07
-2.12189e-08
-6.01121e-09
6.8375e-07
-6.39533e-09
6.50285e-07
-2.49586e-08
2.13173e-08
-1.26021e-08
6.39297e-07
-2.50518e-08
1.66155e-08
-1.18212e-08
6.73718e-07
1.14314e-08
-1.17203e-08
6.99886e-07
5.80655e-09
-1.14319e-08
7.17487e-07
1.20992e-14
-1.1371e-08
7.26339e-07
-5.80589e-09
-1.13706e-08
7.2634e-07
-1.14312e-08
-1.14307e-08
7.17488e-07
-1.66147e-08
-1.1721e-08
6.99886e-07
-2.13183e-08
-1.18224e-08
6.73718e-07
-1.26024e-08
6.39298e-07
-2.50522e-08
2.18054e-08
-1.83559e-08
6.17441e-07
-2.56098e-08
1.70419e-08
-1.72329e-08
6.53761e-07
1.17213e-08
-1.70415e-08
6.81345e-07
5.95005e-09
-1.66157e-08
6.99886e-07
-6.07735e-13
-1.65374e-08
7.09209e-07
-5.95008e-09
-1.65375e-08
7.09209e-07
-1.1721e-08
-1.6616e-08
6.99886e-07
-1.70425e-08
-1.70426e-08
6.81345e-07
-2.18056e-08
-1.72341e-08
6.53762e-07
-1.83559e-08
6.17441e-07
-2.561e-08
2.20629e-08
-2.32465e-08
5.84789e-07
-2.61186e-08
1.7234e-08
-2.20616e-08
6.24023e-07
1.18216e-08
-2.18056e-08
6.53762e-07
6.01007e-09
-2.13178e-08
6.73718e-07
-1.30217e-13
-2.12185e-08
6.8375e-07
-6.01129e-09
-2.1218e-08
6.8375e-07
-1.18221e-08
-2.13183e-08
6.73718e-07
-1.72347e-08
-2.18065e-08
6.53762e-07
-2.20631e-08
-2.2063e-08
6.24023e-07
-2.32473e-08
5.84789e-07
-2.61198e-08
2.32474e-08
5.41432e-07
-2.72289e-08
-2.72293e-08
1.83555e-08
5.8479e-07
-2.61197e-08
1.26012e-08
6.17441e-07
-2.56092e-08
6.39485e-09
6.39298e-07
-2.50514e-08
4.78777e-13
6.50285e-07
-2.49583e-08
-6.395e-09
6.50285e-07
-2.49576e-08
-1.26015e-08
6.39298e-07
-2.50524e-08
-1.83564e-08
6.1744e-07
-2.56102e-08
-2.32479e-08
5.84789e-07
-2.61194e-08
5.41431e-07
-2.72298e-08
-2.72292e-08
1.9995e-08
1.9994e-08
5.48263e-07
-2.34099e-08
-2.34108e-08
1.59276e-08
1.93765e-08
5.92618e-07
-2.31373e-08
1.09571e-08
1.92859e-08
6.25852e-07
-2.27271e-08
5.57458e-09
1.90474e-08
6.48074e-07
-2.24406e-08
-1.33505e-13
1.90317e-08
6.59242e-07
-2.2413e-08
-5.57417e-09
1.90317e-08
6.59242e-07
-2.24136e-08
-1.09563e-08
1.90472e-08
6.48074e-07
-2.24405e-08
-1.5927e-08
1.92858e-08
6.25852e-07
-2.27274e-08
-1.99934e-08
1.93765e-08
5.92618e-07
-2.3137e-08
1.99951e-08
5.48263e-07
-2.3411e-08
-2.34098e-08
1.93774e-08
1.59266e-08
5.92617e-07
-2.31374e-08
1.51124e-08
1.5111e-08
6.32553e-07
1.03263e-08
1.50646e-08
6.62768e-07
5.24518e-09
1.4805e-08
6.83042e-07
-5.07484e-13
1.47886e-08
6.93238e-07
-5.24503e-09
1.47879e-08
6.93237e-07
-1.03253e-08
1.48042e-08
6.83041e-07
-1.5112e-08
1.50644e-08
6.62769e-07
-1.93766e-08
1.51111e-08
6.32553e-07
1.59272e-08
5.92618e-07
-2.31364e-08
1.92868e-08
1.09573e-08
6.25852e-07
-2.27282e-08
1.50653e-08
1.03256e-08
6.62769e-07
1.03429e-08
1.03428e-08
6.90789e-07
5.24958e-09
1.01607e-08
7.09623e-07
4.26023e-13
1.01505e-08
7.19096e-07
-5.25028e-09
1.01509e-08
7.19096e-07
-1.03424e-08
1.016e-08
7.09622e-07
-1.50643e-08
1.03428e-08
6.90789e-07
-1.92858e-08
1.03255e-08
6.62768e-07
1.09564e-08
6.25853e-07
-2.27267e-08
1.9048e-08
5.57442e-09
6.48074e-07
-2.24412e-08
1.48055e-08
5.24501e-09
6.83042e-07
1.01611e-08
5.24992e-09
7.09623e-07
5.15377e-09
5.15419e-09
7.27501e-07
1.09003e-12
5.14704e-09
7.36497e-07
-5.1543e-09
5.14751e-09
7.36497e-07
-1.01614e-08
5.15364e-09
7.27502e-07