/*--------------------------------*- C++ -*----------------------------------*\
| =========                 |                                                 |
| \\      /  F ield         | OpenFOAM: The Open Source CFD Toolbox           |
|  \\    /   O peration     | Version:  2406                                  |
|   \\  /    A nd           | Website:  www.openfoam.com                      |
|    \\/     M anipulation  |                                                 |
\*---------------------------------------------------------------------------*/
FoamFile
{
    version     2.0;
    format      ascii;
    arch        "LSB;label=32;scalar=64";
    class       volVectorField;
    location    "3.5";
    object      U;
}
// * * * * * * * * * * * * * * * * * * * * * * * * * * * * * * * * * * * * * //

dimensions      [0 1 -1 0 0 0 0];

internalField   nonuniform List<vector> 
15000
(
(0.000145457 0.000145468 0.0100011)
(0.000108701 0.000136443 0.0100003)
(7.46804e-05 0.000124602 0.00999937)
(4.3998e-05 0.000117538 0.00999849)
(1.46327e-05 0.00011321 0.00999794)
(-1.46263e-05 0.000113211 0.00999796)
(-4.39948e-05 0.000117537 0.00999851)
(-7.46879e-05 0.000124596 0.00999941)
(-0.000108704 0.000136445 0.0100003)
(-0.000145463 0.000145459 0.0100011)
(0.000136446 0.000108708 0.0100003)
(9.65566e-05 9.65635e-05 0.00999834)
(6.64602e-05 8.85306e-05 0.0099964)
(3.88593e-05 8.33749e-05 0.00999489)
(1.27366e-05 8.05496e-05 0.0099942)
(-1.27401e-05 8.05418e-05 0.00999416)
(-3.88552e-05 8.33694e-05 0.00999489)
(-6.64619e-05 8.85276e-05 0.00999639)
(-9.65576e-05 9.65673e-05 0.00999832)
(-0.00013644 0.000108703 0.0100003)
(0.000124597 7.46852e-05 0.0099994)
(8.85259e-05 6.64646e-05 0.00999642)
(6.0446e-05 6.04465e-05 0.00999384)
(3.52241e-05 5.65134e-05 0.0099922)
(1.15036e-05 5.45312e-05 0.00999147)
(-1.15084e-05 5.4533e-05 0.00999149)
(-3.52277e-05 5.65127e-05 0.00999221)
(-6.04498e-05 6.04473e-05 0.00999385)
(-8.85324e-05 6.64648e-05 0.00999641)
(-0.000124605 7.46813e-05 0.00999937)
(0.000117535 4.39986e-05 0.0099985)
(8.33818e-05 3.88614e-05 0.00999486)
(5.65136e-05 3.52245e-05 0.0099922)
(3.27716e-05 3.27717e-05 0.00999071)
(1.0672e-05 3.1555e-05 0.00999016)
(-1.06847e-05 3.15554e-05 0.00999013)
(-3.27719e-05 3.27779e-05 0.00999071)
(-5.65151e-05 3.5226e-05 0.00999221)
(-8.3382e-05 3.8861e-05 0.00999491)
(-0.000117535 4.40043e-05 0.0099985)
(0.000113213 1.46239e-05 0.00999794)
(8.05481e-05 1.27402e-05 0.00999418)
(5.45347e-05 1.15054e-05 0.00999151)
(3.15599e-05 1.06765e-05 0.00999015)
(1.0282e-05 1.02841e-05 0.00998973)
(-1.02866e-05 1.02931e-05 0.00998969)
(-3.15633e-05 1.06813e-05 0.00999018)
(-5.45337e-05 1.15089e-05 0.00999148)
(-8.05483e-05 1.2735e-05 0.00999419)
(-0.000113212 1.46312e-05 0.00999796)
(0.000113205 -1.46177e-05 0.00999798)
(8.05466e-05 -1.27399e-05 0.00999419)
(5.45295e-05 -1.15075e-05 0.00999145)
(3.15561e-05 -1.06767e-05 0.00999015)
(1.02822e-05 -1.02908e-05 0.00998967)
(-1.02899e-05 -1.02942e-05 0.00998971)
(-3.15595e-05 -1.06823e-05 0.00999013)
(-5.45306e-05 -1.15072e-05 0.00999153)
(-8.05511e-05 -1.27335e-05 0.00999417)
(-0.000113214 -1.46186e-05 0.00999797)
(0.000117539 -4.39968e-05 0.00999849)
(8.33771e-05 -3.88615e-05 0.00999491)
(5.65093e-05 -3.52243e-05 0.00999219)
(3.27727e-05 -3.27704e-05 0.00999072)
(1.06804e-05 -3.15603e-05 0.00999014)
(-1.06789e-05 -3.156e-05 0.00999017)
(-3.27806e-05 -3.27708e-05 0.00999072)
(-5.65147e-05 -3.52281e-05 0.00999222)
(-8.338e-05 -3.88581e-05 0.0099949)
(-0.000117541 -4.39971e-05 0.0099985)
(0.0001246 -7.46812e-05 0.00999939)
(8.85252e-05 -6.64659e-05 0.00999642)
(6.0453e-05 -6.04474e-05 0.00999387)
(3.52239e-05 -5.65159e-05 0.00999221)
(1.15075e-05 -5.45249e-05 0.00999147)
(-1.15076e-05 -5.45375e-05 0.0099915)
(-3.52281e-05 -5.65138e-05 0.00999222)
(-6.0453e-05 -6.04463e-05 0.00999386)
(-8.85241e-05 -6.64611e-05 0.00999644)
(-0.000124607 -7.46803e-05 0.00999936)
(0.000136442 -0.000108701 0.0100003)
(9.65608e-05 -9.65668e-05 0.00999832)
(6.64716e-05 -8.8524e-05 0.00999641)
(3.88562e-05 -8.33778e-05 0.00999491)
(1.274e-05 -8.05458e-05 0.00999419)
(-1.27379e-05 -8.05456e-05 0.00999419)
(-3.88578e-05 -8.33776e-05 0.00999492)
(-6.64666e-05 -8.8524e-05 0.00999642)
(-9.65552e-05 -9.65636e-05 0.00999832)
(-0.000136455 -0.000108705 0.0100003)
(0.000145467 -0.000145456 0.0100012)
(0.000108704 -0.00013644 0.0100003)
(7.46857e-05 -0.000124601 0.00999938)
(4.40035e-05 -0.000117539 0.00999849)
(1.46291e-05 -0.000113201 0.00999796)
(-1.46251e-05 -0.000113208 0.00999798)
(-4.40052e-05 -0.000117537 0.00999848)
(-7.46754e-05 -0.000124609 0.00999937)
(-0.0001087 -0.000136443 0.0100003)
(-0.000145463 -0.000145459 0.0100011)
(0.000198903 0.000198898 0.0103194)
(0.000144109 0.000170274 0.0102892)
(9.9946e-05 0.000166874 0.0102674)
(5.94206e-05 0.000160696 0.0102537)
(1.96402e-05 0.000158069 0.0102466)
(-1.96432e-05 0.000158067 0.0102466)
(-5.94247e-05 0.000160693 0.0102537)
(-9.99483e-05 0.000166884 0.0102674)
(-0.000144105 0.000170276 0.0102892)
(-0.000198897 0.000198905 0.0103194)
(0.000170267 0.000144104 0.0102893)
(0.00013103 0.000131029 0.0102593)
(9.5445e-05 0.000126417 0.0102386)
(5.69688e-05 0.000122676 0.0102254)
(1.9066e-05 0.000121061 0.0102189)
(-1.90691e-05 0.00012106 0.0102189)
(-5.69682e-05 0.000122674 0.0102254)
(-9.54379e-05 0.000126421 0.0102386)
(-0.000131034 0.00013102 0.0102594)
(-0.000170265 0.000144102 0.0102892)
(0.000166882 9.99506e-05 0.0102674)
(0.000126419 9.54425e-05 0.0102386)
(9.10004e-05 9.10043e-05 0.0102189)
(5.41573e-05 8.792e-05 0.010206)
(1.80827e-05 8.62864e-05 0.0101998)
(-1.80828e-05 8.62864e-05 0.0101998)
(-5.41549e-05 8.79157e-05 0.010206)
(-9.10007e-05 9.09972e-05 0.0102189)
(-0.000126415 9.54382e-05 0.0102386)
(-0.000166873 9.99394e-05 0.0102674)
(0.000160702 5.94195e-05 0.0102537)
(0.000122663 5.69646e-05 0.0102254)
(8.79189e-05 5.41623e-05 0.010206)
(5.23172e-05 5.23253e-05 0.0101933)
(1.74413e-05 5.13496e-05 0.0101871)
(-1.74294e-05 5.13493e-05 0.0101871)
(-5.23236e-05 5.23212e-05 0.0101933)
(-8.79217e-05 5.41614e-05 0.010206)
(-0.000122665 5.69682e-05 0.0102253)
(-0.000160695 5.94168e-05 0.0102537)
(0.000158067 1.96479e-05 0.0102466)
(0.000121061 1.90731e-05 0.0102189)
(8.6286e-05 1.80804e-05 0.0101997)
(5.13443e-05 1.7438e-05 0.0101871)
(1.70941e-05 1.70958e-05 0.0101809)
(-1.70947e-05 1.71016e-05 0.0101809)
(-5.1349e-05 1.7441e-05 0.0101871)
(-8.62841e-05 1.80765e-05 0.0101997)
(-0.000121062 1.90769e-05 0.0102189)
(-0.000158063 1.96461e-05 0.0102466)
(0.000158058 -1.9646e-05 0.0102466)
(0.000121069 -1.90701e-05 0.0102189)
(8.62848e-05 -1.80707e-05 0.0101998)
(5.13498e-05 -1.74384e-05 0.0101871)
(1.70912e-05 -1.70908e-05 0.0101809)
(-1.70912e-05 -1.70829e-05 0.0101809)
(-5.13579e-05 -1.7431e-05 0.0101871)
(-8.62757e-05 -1.80719e-05 0.0101997)
(-0.000121063 -1.90681e-05 0.0102189)
(-0.000158061 -1.96422e-05 0.0102466)
(0.000160691 -5.94169e-05 0.0102537)
(0.00012267 -5.69641e-05 0.0102253)
(8.79228e-05 -5.41595e-05 0.010206)
(5.2322e-05 -5.23253e-05 0.0101933)
(1.74323e-05 -5.1352e-05 0.0101871)
(-1.74366e-05 -5.13554e-05 0.0101871)
(-5.23174e-05 -5.23203e-05 0.0101933)
(-8.7915e-05 -5.41577e-05 0.010206)
(-0.000122663 -5.69605e-05 0.0102253)
(-0.000160692 -5.94188e-05 0.0102537)
(0.000166875 -9.99447e-05 0.0102674)
(0.000126405 -9.54414e-05 0.0102386)
(9.09988e-05 -9.10023e-05 0.0102189)
(5.41567e-05 -8.79178e-05 0.010206)
(1.80751e-05 -8.62816e-05 0.0101997)
(-1.80718e-05 -8.62783e-05 0.0101997)
(-5.41506e-05 -8.79114e-05 0.010206)
(-9.10022e-05 -9.09938e-05 0.0102189)
(-0.000126412 -9.54406e-05 0.0102386)
(-0.000166876 -9.99489e-05 0.0102674)
(0.000170263 -0.000144109 0.0102892)
(0.000131029 -0.000131024 0.0102593)
(9.54336e-05 -0.000126422 0.0102386)
(5.69642e-05 -0.000122667 0.0102253)
(1.9075e-05 -0.000121066 0.0102189)
(-1.90678e-05 -0.000121062 0.0102189)
(-5.69651e-05 -0.00012267 0.0102254)
(-9.5439e-05 -0.000126418 0.0102386)
(-0.000131035 -0.000131023 0.0102594)
(-0.000170267 -0.000144105 0.0102893)
(0.00019889 -0.000198903 0.0103194)
(0.000144107 -0.000170274 0.0102892)
(9.99459e-05 -0.000166876 0.0102674)
(5.94107e-05 -0.000160687 0.0102537)
(1.96463e-05 -0.000158058 0.0102466)
(-1.96431e-05 -0.000158056 0.0102466)
(-5.94125e-05 -0.000160687 0.0102537)
(-9.99526e-05 -0.000166873 0.0102674)
(-0.00014411 -0.00017027 0.0102892)
(-0.000198898 -0.000198901 0.0103195)
(0.000221851 0.000221859 0.0105629)
(0.000165648 0.000192198 0.0105236)
(0.000115924 0.000193242 0.0104942)
(6.95445e-05 0.000186707 0.0104753)
(2.26833e-05 0.000185257 0.0104654)
(-2.26898e-05 0.000185256 0.0104654)
(-6.95386e-05 0.000186701 0.0104753)
(-0.000115921 0.000193237 0.0104942)
(-0.000165658 0.000192198 0.0105236)
(-0.000221855 0.000221856 0.0105629)
(0.000192193 0.000165657 0.0105236)
(0.000152784 0.000152785 0.0104839)
(0.000111222 0.000149359 0.0104528)
(6.72006e-05 0.000145442 0.0104327)
(2.25049e-05 0.000144294 0.0104225)
(-2.25042e-05 0.000144294 0.0104225)
(-6.72098e-05 0.000145439 0.0104327)
(-0.00011123 0.000149365 0.0104528)
(-0.00015278 0.000152785 0.010484)
(-0.000192197 0.000165661 0.0105236)
(0.000193239 0.000115924 0.0104943)
(0.000149362 0.000111229 0.0104528)
(0.000108182 0.000108185 0.0104218)
(6.47971e-05 0.000105289 0.0104015)
(2.16946e-05 0.00010393 0.0103916)
(-2.17001e-05 0.00010394 0.0103916)
(-6.47982e-05 0.000105291 0.0104015)
(-0.000108185 0.000108181 0.0104217)
(-0.00014937 0.00011123 0.0104528)
(-0.000193246 0.000115923 0.0104942)
(0.000186694 6.95379e-05 0.0104753)
(0.000145443 6.72039e-05 0.0104327)
(0.000105284 6.47973e-05 0.0104015)
(6.31366e-05 6.31337e-05 0.0103815)
(2.11848e-05 6.23124e-05 0.0103719)
(-2.11902e-05 6.23139e-05 0.0103719)
(-6.31358e-05 6.3131e-05 0.0103815)
(-0.000105291 6.47926e-05 0.0104015)
(-0.000145447 6.7198e-05 0.0104327)
(-0.0001867 6.95403e-05 0.0104753)
(0.00018526 2.26801e-05 0.0104654)
(0.000144293 2.25033e-05 0.0104225)
(0.000103936 2.17088e-05 0.0103916)
(6.23152e-05 2.11891e-05 0.0103719)
(2.08771e-05 2.0876e-05 0.0103624)
(-2.08814e-05 2.08724e-05 0.0103624)
(-6.23174e-05 2.11883e-05 0.0103719)
(-0.000103937 2.17081e-05 0.0103916)
(-0.0001443 2.24971e-05 0.0104225)
(-0.000185259 2.26845e-05 0.0104654)
(0.00018525 -2.26859e-05 0.0104654)
(0.000144304 -2.25008e-05 0.0104225)
(0.000103931 -2.1709e-05 0.0103916)
(6.23132e-05 -2.11923e-05 0.0103719)
(2.08728e-05 -2.08769e-05 0.0103624)
(-2.08809e-05 -2.08799e-05 0.0103624)
(-6.23308e-05 -2.11951e-05 0.0103719)
(-0.000103928 -2.17119e-05 0.0103916)
(-0.000144305 -2.25027e-05 0.0104225)
(-0.000185256 -2.26886e-05 0.0104654)
(0.000186712 -6.95431e-05 0.0104753)
(0.000145434 -6.72076e-05 0.0104326)
(0.000105286 -6.47966e-05 0.0104015)
(6.31317e-05 -6.31396e-05 0.0103815)
(2.1181e-05 -6.23194e-05 0.0103719)
(-2.11917e-05 -6.2316e-05 0.0103719)
(-6.31354e-05 -6.31393e-05 0.0103815)
(-0.000105292 -6.47977e-05 0.0104015)
(-0.000145442 -6.7206e-05 0.0104327)
(-0.000186715 -6.95491e-05 0.0104753)
(0.000193232 -0.000115925 0.0104943)
(0.000149367 -0.000111225 0.0104528)
(0.000108189 -0.000108188 0.0104218)
(6.47963e-05 -0.000105287 0.0104015)
(2.17059e-05 -0.000103936 0.0103916)
(-2.17129e-05 -0.000103935 0.0103916)
(-6.4804e-05 -0.000105295 0.0104015)
(-0.000108194 -0.000108185 0.0104218)
(-0.000149367 -0.000111235 0.0104528)
(-0.000193239 -0.000115923 0.0104942)
(0.000192203 -0.000165659 0.0105236)
(0.000152785 -0.000152784 0.010484)
(0.000111226 -0.000149361 0.0104528)
(6.7204e-05 -0.000145443 0.0104327)
(2.24993e-05 -0.0001443 0.0104225)
(-2.2505e-05 -0.0001443 0.0104225)
(-6.72113e-05 -0.000145438 0.0104327)
(-0.000111227 -0.000149365 0.0104528)
(-0.000152784 -0.000152783 0.010484)
(-0.000192196 -0.000165656 0.0105236)
(0.000221865 -0.000221855 0.0105629)
(0.000165648 -0.000192201 0.0105236)
(0.00011593 -0.000193243 0.0104942)
(6.95401e-05 -0.000186708 0.0104753)
(2.26828e-05 -0.000185257 0.0104654)
(-2.26806e-05 -0.000185254 0.0104654)
(-6.95426e-05 -0.000186707 0.0104753)
(-0.000115927 -0.000193242 0.0104942)
(-0.000165652 -0.000192199 0.0105236)
(-0.000221869 -0.000221858 0.0105629)
(0.000217515 0.000217507 0.0108067)
(0.000166163 0.000194239 0.0107619)
(0.000117003 0.000198644 0.01073)
(7.07199e-05 0.000193729 0.0107095)
(2.27592e-05 0.000193732 0.010699)
(-2.27651e-05 0.000193741 0.010699)
(-7.0723e-05 0.000193725 0.0107095)
(-0.000116992 0.000198653 0.01073)
(-0.00016616 0.000194237 0.0107619)
(-0.000217505 0.000217505 0.0108067)
(0.000194234 0.000166171 0.0107619)
(0.00015589 0.000155881 0.0107202)
(0.000112964 0.000154692 0.0106886)
(6.88707e-05 0.000151636 0.0106682)
(2.28504e-05 0.000151264 0.0106577)
(-2.28494e-05 0.000151261 0.0106577)
(-6.8871e-05 0.000151641 0.0106682)
(-0.000112959 0.000154696 0.0106886)
(-0.000155894 0.000155886 0.0107202)
(-0.000194227 0.000166164 0.0107619)
(0.00019865 0.000116993 0.01073)
(0.000154692 0.000112959 0.0106886)
(0.000112312 0.000112312 0.0106579)
(6.75133e-05 0.000110182 0.0106377)
(2.25897e-05 0.000109537 0.0106274)
(-2.25843e-05 0.000109534 0.0106275)
(-6.75104e-05 0.000110177 0.0106377)
(-0.000112303 0.00011231 0.010658)
(-0.000154694 0.000112964 0.0106886)
(-0.000198645 0.000116995 0.01073)
(0.000193729 7.0732e-05 0.0107095)
(0.000151635 6.88728e-05 0.0106682)
(0.000110181 6.75182e-05 0.0106377)
(6.63021e-05 6.63012e-05 0.0106174)
(2.22742e-05 6.58245e-05 0.0106071)
(-2.22756e-05 6.5831e-05 0.0106071)
(-6.6309e-05 6.63091e-05 0.0106173)
(-0.000110172 6.75191e-05 0.0106377)
(-0.000151632 6.887e-05 0.0106682)
(-0.000193724 7.07205e-05 0.0107095)
(0.00019374 2.27595e-05 0.010699)
(0.000151254 2.28556e-05 0.0106577)
(0.000109534 2.25844e-05 0.0106274)
(6.58264e-05 2.22721e-05 0.0106071)
(2.21108e-05 2.21028e-05 0.0105968)
(-2.21034e-05 2.21077e-05 0.0105969)
(-6.58332e-05 2.22772e-05 0.0106071)
(-0.000109532 2.25889e-05 0.0106274)
(-0.000151263 2.28542e-05 0.0106577)
(-0.000193729 2.27646e-05 0.010699)
(0.000193732 -2.27631e-05 0.010699)
(0.000151265 -2.28557e-05 0.0106577)
(0.000109541 -2.25828e-05 0.0106275)
(6.58305e-05 -2.22714e-05 0.0106071)
(2.20929e-05 -2.21027e-05 0.0105968)
(-2.21036e-05 -2.20977e-05 0.0105968)
(-6.58302e-05 -2.22697e-05 0.0106071)
(-0.000109533 -2.25876e-05 0.0106274)
(-0.000151259 -2.28568e-05 0.0106577)
(-0.000193728 -2.27638e-05 0.010699)
(0.000193721 -7.07335e-05 0.0107095)
(0.00015164 -6.88673e-05 0.0106682)
(0.000110175 -6.7515e-05 0.0106377)
(6.63043e-05 -6.63022e-05 0.0106173)
(2.22762e-05 -6.58281e-05 0.0106071)
(-2.2276e-05 -6.58228e-05 0.0106071)
(-6.63067e-05 -6.6297e-05 0.0106173)
(-0.000110169 -6.75149e-05 0.0106377)
(-0.000151637 -6.88626e-05 0.0106682)
(-0.000193718 -7.07303e-05 0.0107095)
(0.000198655 -0.000116988 0.01073)
(0.000154684 -0.00011296 0.0106886)
(0.000112308 -0.000112304 0.0106579)
(6.75176e-05 -0.000110174 0.0106377)
(2.25855e-05 -0.000109529 0.0106274)
(-2.25802e-05 -0.000109527 0.0106274)
(-6.75128e-05 -0.000110171 0.0106377)
(-0.000112312 -0.000112303 0.0106579)
(-0.000154684 -0.000112956 0.0106886)
(-0.000198647 -0.000116985 0.01073)
(0.000194227 -0.000166162 0.0107619)
(0.000155889 -0.00015588 0.0107202)
(0.000112958 -0.000154694 0.0106886)
(6.88701e-05 -0.000151633 0.0106682)
(2.28495e-05 -0.000151255 0.0106577)
(-2.28491e-05 -0.000151263 0.0106577)
(-6.88738e-05 -0.000151636 0.0106682)
(-0.000112955 -0.000154688 0.0106886)
(-0.000155889 -0.00015588 0.0107202)
(-0.000194224 -0.000166156 0.0107619)
(0.000217506 -0.000217512 0.0108067)
(0.000166165 -0.000194236 0.0107619)
(0.00011699 -0.000198641 0.01073)
(7.07232e-05 -0.000193724 0.0107095)
(2.27635e-05 -0.000193743 0.010699)
(-2.27604e-05 -0.000193732 0.010699)
(-7.07271e-05 -0.000193725 0.0107095)
(-0.000116995 -0.000198643 0.01073)
(-0.000166169 -0.000194237 0.010762)
(-0.000217511 -0.000217505 0.0108067)
(0.000195976 0.000195984 0.01105)
(0.000152515 0.000182625 0.0110002)
(0.000108022 0.000189329 0.0109633)
(6.56231e-05 0.000187122 0.0109384)
(2.09085e-05 0.000188412 0.0109258)
(-2.09017e-05 0.000188415 0.0109258)
(-6.56186e-05 0.000187119 0.0109384)
(-0.00010802 0.000189326 0.0109633)
(-0.00015252 0.000182625 0.0110002)
(-0.000195977 0.000195988 0.01105)
(0.000182615 0.000152524 0.0110002)
(0.000146362 0.000146362 0.01095)
(0.000105327 0.000147627 0.0109115)
(6.44842e-05 0.000146032 0.0108858)
(2.11559e-05 0.000146482 0.0108728)
(-2.11546e-05 0.000146478 0.0108728)
(-6.44846e-05 0.000146035 0.0108858)
(-0.000105324 0.000147628 0.0109115)
(-0.000146366 0.000146361 0.01095)
(-0.000182619 0.000152516 0.0110002)
(0.000189326 0.000108024 0.0109633)
(0.000147628 0.000105327 0.0109115)
(0.000107068 0.000107078 0.0108724)
(6.44269e-05 0.000106065 0.0108467)
(2.1485e-05 0.000106241 0.0108339)
(-2.14904e-05 0.000106235 0.0108339)
(-6.44297e-05 0.000106067 0.0108467)
(-0.000107072 0.000107065 0.0108724)
(-0.000147628 0.000105325 0.0109114)
(-0.000189328 0.000108022 0.0109633)
(0.000187111 6.56208e-05 0.0109384)
(0.000146044 6.4483e-05 0.0108858)
(0.000106055 6.44364e-05 0.0108467)
(6.38519e-05 6.3848e-05 0.0108211)
(2.14277e-05 6.38072e-05 0.0108085)
(-2.14235e-05 6.38075e-05 0.0108085)
(-6.38529e-05 6.3844e-05 0.0108212)
(-0.00010606 6.44342e-05 0.0108467)
(-0.000146048 6.44859e-05 0.0108858)
(-0.000187116 6.5618e-05 0.0109384)
(0.000188414 2.09043e-05 0.0109258)
(0.000146483 2.11562e-05 0.0108728)
(0.000106233 2.14785e-05 0.0108339)
(6.38084e-05 2.14355e-05 0.0108085)
(2.14365e-05 2.14377e-05 0.0107961)
(-2.14392e-05 2.14345e-05 0.0107961)
(-6.38071e-05 2.14422e-05 0.0108085)
(-0.000106245 2.14825e-05 0.0108339)
(-0.000146483 2.11536e-05 0.0108728)
(-0.000188413 2.08999e-05 0.0109258)
(0.00018841 -2.09038e-05 0.0109258)
(0.000146485 -2.1153e-05 0.0108728)
(0.000106235 -2.14846e-05 0.0108339)
(6.38043e-05 -2.14372e-05 0.0108085)
(2.14366e-05 -2.14339e-05 0.0107961)
(-2.14444e-05 -2.14333e-05 0.0107961)
(-6.38181e-05 -2.14436e-05 0.0108085)
(-0.000106237 -2.14819e-05 0.0108339)
(-0.000146483 -2.1158e-05 0.0108728)
(-0.000188419 -2.09025e-05 0.0109259)
(0.000187119 -6.56218e-05 0.0109384)
(0.000146028 -6.4488e-05 0.0108858)
(0.000106062 -6.44275e-05 0.0108467)
(6.38513e-05 -6.38496e-05 0.0108212)
(2.14328e-05 -6.38156e-05 0.0108085)
(-2.14326e-05 -6.38068e-05 0.0108085)
(-6.385e-05 -6.38452e-05 0.0108211)
(-0.000106068 -6.44315e-05 0.0108467)
(-0.000146037 -6.44857e-05 0.0108858)
(-0.000187128 -6.56212e-05 0.0109384)
(0.000189334 -0.000108018 0.0109633)
(0.000147622 -0.000105323 0.0109115)
(0.000107075 -0.000107075 0.0108724)
(6.44204e-05 -0.000106068 0.0108467)
(2.14862e-05 -0.000106236 0.0108339)
(-2.14904e-05 -0.000106234 0.0108339)
(-6.44309e-05 -0.000106066 0.0108467)
(-0.000107079 -0.00010707 0.0108724)
(-0.000147623 -0.000105323 0.0109115)
(-0.000189334 -0.000108029 0.0109633)
(0.000182619 -0.00015252 0.0110002)
(0.000146366 -0.000146369 0.01095)
(0.000105325 -0.000147627 0.0109115)
(6.44823e-05 -0.000146031 0.0108858)
(2.11598e-05 -0.000146477 0.0108728)
(-2.11521e-05 -0.000146484 0.0108728)
(-6.44945e-05 -0.000146038 0.0108858)
(-0.000105325 -0.000147634 0.0109115)
(-0.000146374 -0.000146368 0.0109501)
(-0.000182622 -0.000152517 0.0110002)
(0.000195998 -0.000195984 0.0110501)
(0.000152514 -0.000182621 0.0110002)
(0.000108029 -0.000189327 0.0109633)
(6.56155e-05 -0.000187125 0.0109384)
(2.09153e-05 -0.000188419 0.0109258)
(-2.0913e-05 -0.000188411 0.0109259)
(-6.56142e-05 -0.000187122 0.0109384)
(-0.000108026 -0.000189325 0.0109633)
(-0.000152519 -0.000182626 0.0110002)
(-0.000195996 -0.000195992 0.0110501)
(0.000169135 0.000169131 0.0112573)
(0.000133482 0.000165301 0.0112105)
(9.51209e-05 0.00017318 0.0111755)
(5.7899e-05 0.000173777 0.0111518)
(1.83655e-05 0.000175994 0.0111401)
(-1.83696e-05 0.000176005 0.0111401)
(-5.78984e-05 0.000173776 0.0111518)
(-9.5122e-05 0.000173184 0.0111755)
(-0.000133479 0.000165296 0.0112105)
(-0.000169129 0.000169142 0.0112573)
(0.000165289 0.000133476 0.0112105)
(0.000131495 0.00013149 0.0111632)
(9.39916e-05 0.000134778 0.0111283)
(5.75669e-05 0.000134796 0.0111049)
(1.86889e-05 0.000135919 0.0110931)
(-1.8699e-05 0.000135911 0.0110931)
(-5.75707e-05 0.000134801 0.0111049)
(-9.39851e-05 0.000134779 0.0111283)
(-0.000131493 0.000131488 0.0111632)
(-0.000165294 0.000133478 0.0112105)
(0.000173182 9.51193e-05 0.0111755)
(0.000134782 9.39892e-05 0.0111283)
(9.75777e-05 9.75842e-05 0.0110934)
(5.86766e-05 9.77161e-05 0.0110701)
(1.95124e-05 9.85895e-05 0.0110583)
(-1.9511e-05 9.85897e-05 0.0110583)
(-5.86788e-05 9.77113e-05 0.01107)
(-9.75727e-05 9.75817e-05 0.0110934)
(-0.000134784 9.3989e-05 0.0111283)
(-0.00017318 9.51206e-05 0.0111755)
(0.000173773 5.79047e-05 0.0111518)
(0.000134805 5.75678e-05 0.0111049)
(9.77082e-05 5.86818e-05 0.0110701)
(5.87296e-05 5.87301e-05 0.0110466)
(1.96676e-05 5.90585e-05 0.0110348)
(-1.96583e-05 5.90644e-05 0.0110348)
(-5.8732e-05 5.87212e-05 0.0110466)
(-9.77136e-05 5.86829e-05 0.01107)
(-0.000134805 5.75709e-05 0.0111049)
(-0.000173778 5.79027e-05 0.0111518)
(0.000175999 1.83625e-05 0.0111401)
(0.000135909 1.86958e-05 0.0110931)
(9.8594e-05 1.95071e-05 0.0110583)
(5.90573e-05 1.9662e-05 0.0110348)
(1.98467e-05 1.984e-05 0.0110229)
(-1.98371e-05 1.98438e-05 0.011023)
(-5.9063e-05 1.96689e-05 0.0110348)
(-9.8597e-05 1.95126e-05 0.0110583)
(-0.000135918 1.86982e-05 0.0110931)
(-0.000175995 1.83592e-05 0.0111401)
(0.000175994 -1.83641e-05 0.0111401)
(0.000135914 -1.86923e-05 0.0110931)
(9.85839e-05 -1.95086e-05 0.0110583)
(5.90611e-05 -1.96642e-05 0.0110348)
(1.98324e-05 -1.98432e-05 0.011023)
(-1.98437e-05 -1.9833e-05 0.011023)
(-5.9055e-05 -1.96636e-05 0.0110348)
(-9.86005e-05 -1.95067e-05 0.0110583)
(-0.00013591 -1.86939e-05 0.0110931)
(-0.000175995 -1.8364e-05 0.0111401)
(0.000173779 -5.79127e-05 0.0111518)
(0.000134801 -5.75718e-05 0.0111049)
(9.77024e-05 -5.8676e-05 0.01107)
(5.87333e-05 -5.87239e-05 0.0110466)
(1.96747e-05 -5.90623e-05 0.0110348)
(-1.96683e-05 -5.90618e-05 0.0110348)
(-5.87323e-05 -5.87277e-05 0.0110466)
(-9.77069e-05 -5.86805e-05 0.0110701)
(-0.000134802 -5.75726e-05 0.0111049)
(-0.000173772 -5.79098e-05 0.0111518)
(0.000173181 -9.51146e-05 0.0111755)
(0.000134774 -9.39865e-05 0.0111283)
(9.75847e-05 -9.75829e-05 0.0110934)
(5.868e-05 -9.77192e-05 0.01107)
(1.95099e-05 -9.85902e-05 0.0110583)
(-1.95169e-05 -9.85847e-05 0.0110583)
(-5.86761e-05 -9.77099e-05 0.01107)
(-9.75789e-05 -9.75864e-05 0.0110934)
(-0.000134768 -9.39867e-05 0.0111282)
(-0.000173178 -9.51174e-05 0.0111755)
(0.000165295 -0.000133476 0.0112105)
(0.000131494 -0.000131489 0.0111632)
(9.39827e-05 -0.000134781 0.0111283)
(5.75702e-05 -0.00013479 0.0111049)
(1.86955e-05 -0.000135909 0.0110931)
(-1.86945e-05 -0.000135923 0.0110931)
(-5.75748e-05 -0.000134801 0.0111049)
(-9.39825e-05 -0.000134778 0.0111282)
(-0.000131491 -0.000131485 0.0111632)
(-0.000165293 -0.000133471 0.0112105)
(0.00016913 -0.00016914 0.0112573)
(0.000133482 -0.0001653 0.0112105)
(9.51201e-05 -0.000173181 0.0111755)
(5.78991e-05 -0.000173775 0.0111518)
(1.83674e-05 -0.000175992 0.0111401)
(-1.83746e-05 -0.000175989 0.0111401)
(-5.7899e-05 -0.000173777 0.0111518)
(-9.51172e-05 -0.00017318 0.0111755)
(-0.00013348 -0.0001653 0.0112105)
(-0.00016913 -0.000169127 0.0112573)
(0.000144487 0.000144494 0.0114426)
(0.000114986 0.000147416 0.0113988)
(8.24324e-05 0.000155491 0.0113623)
(5.01026e-05 0.00015823 0.0113366)
(1.59263e-05 0.000160941 0.0113239)
(-1.59295e-05 0.000160936 0.0113239)
(-5.01077e-05 0.000158233 0.0113366)
(-8.24401e-05 0.000155489 0.0113623)
(-0.000114983 0.000147417 0.0113988)
(-0.000144487 0.000144495 0.0114426)
(0.000147406 0.000114985 0.0113988)
(0.000116 0.000115991 0.0113474)
(8.2548e-05 0.000120503 0.0113082)
(5.0372e-05 0.000121782 0.0112816)
(1.62525e-05 0.000123321 0.0112684)
(-1.62649e-05 0.00012332 0.0112684)
(-5.03718e-05 0.000121793 0.0112817)
(-8.25489e-05 0.000120511 0.0113083)
(-0.000115996 0.000116 0.0113474)
(-0.000147415 0.00011499 0.0113988)
(0.000155488 8.24489e-05 0.0113623)
(0.000120508 8.2552e-05 0.0113082)
(8.71318e-05 8.71375e-05 0.0112678)
(5.22807e-05 8.81726e-05 0.0112409)
(1.7361e-05 8.94917e-05 0.0112277)
(-1.73683e-05 8.94956e-05 0.0112277)
(-5.2286e-05 8.81651e-05 0.0112409)
(-8.71348e-05 8.7138e-05 0.0112678)
(-0.000120512 8.25519e-05 0.0113083)
(-0.000155491 8.24478e-05 0.0113623)
(0.000158221 5.01067e-05 0.0113366)
(0.000121791 5.03729e-05 0.0112817)
(8.81524e-05 5.22861e-05 0.011241)
(5.28353e-05 5.28321e-05 0.0112142)
(1.76747e-05 5.34276e-05 0.011201)
(-1.76678e-05 5.34297e-05 0.011201)
(-5.28427e-05 5.28288e-05 0.0112142)
(-8.81608e-05 5.22877e-05 0.0112409)
(-0.000121792 5.03744e-05 0.0112816)
(-0.000158221 5.01063e-05 0.0113366)
(0.000160934 1.59285e-05 0.0113239)
(0.000123309 1.62685e-05 0.0112684)
(8.94956e-05 1.73643e-05 0.0112276)
(5.34286e-05 1.76657e-05 0.011201)
(1.79645e-05 1.79711e-05 0.0111879)
(-1.79689e-05 1.79717e-05 0.0111879)
(-5.34296e-05 1.76709e-05 0.011201)
(-8.94909e-05 1.73695e-05 0.0112277)
(-0.000123315 1.62605e-05 0.0112684)
(-0.000160938 1.5922e-05 0.0113239)
(0.000160936 -1.59258e-05 0.0113239)
(0.000123315 -1.62629e-05 0.0112684)
(8.94815e-05 -1.73602e-05 0.0112276)
(5.34296e-05 -1.76675e-05 0.011201)
(1.79606e-05 -1.7968e-05 0.0111879)
(-1.79651e-05 -1.79648e-05 0.0111878)
(-5.34299e-05 -1.76634e-05 0.011201)
(-8.94944e-05 -1.73557e-05 0.0112277)
(-0.000123319 -1.62609e-05 0.0112684)
(-0.000160934 -1.59253e-05 0.0113239)
(0.000158226 -5.01025e-05 0.0113366)
(0.000121778 -5.0369e-05 0.0112817)
(8.81637e-05 -5.22803e-05 0.011241)
(5.28374e-05 -5.28334e-05 0.0112142)
(1.76726e-05 -5.34306e-05 0.0112009)
(-1.76683e-05 -5.34276e-05 0.011201)
(-5.284e-05 -5.28242e-05 0.0112142)
(-8.81587e-05 -5.22844e-05 0.011241)
(-0.00012178 -5.0374e-05 0.0112817)
(-0.00015823 -5.01093e-05 0.0113366)
(0.000155491 -8.2441e-05 0.0113623)
(0.000120499 -8.25437e-05 0.0113083)
(8.71429e-05 -8.71339e-05 0.0112678)
(5.22841e-05 -8.81699e-05 0.011241)
(1.73708e-05 -8.94855e-05 0.0112277)
(-1.7377e-05 -8.94834e-05 0.0112277)
(-5.22794e-05 -8.8165e-05 0.011241)
(-8.7145e-05 -8.71389e-05 0.0112678)
(-0.000120504 -8.25468e-05 0.0113083)
(-0.000155497 -8.24407e-05 0.0113623)
(0.000147411 -0.000114988 0.0113988)
(0.000116001 -0.000115995 0.0113474)
(8.25517e-05 -0.000120504 0.0113083)
(5.03667e-05 -0.000121779 0.0112816)
(1.62602e-05 -0.000123314 0.0112684)
(-1.62647e-05 -0.00012332 0.0112684)
(-5.03727e-05 -0.000121786 0.0112817)
(-8.25518e-05 -0.000120513 0.0113083)
(-0.000116004 -0.000116005 0.0113474)
(-0.000147418 -0.000114983 0.0113988)
(0.000144497 -0.000144491 0.0114426)
(0.000114983 -0.000147408 0.0113988)
(8.24473e-05 -0.000155488 0.0113623)
(5.00896e-05 -0.000158226 0.0113366)
(1.59389e-05 -0.000160935 0.0113239)
(-1.59357e-05 -0.000160927 0.0113239)
(-5.00933e-05 -0.000158229 0.0113366)
(-8.24484e-05 -0.000155493 0.0113623)
(-0.00011499 -0.000147415 0.0113988)
(-0.000144497 -0.000144492 0.0114426)
(0.00012382 0.00012381 0.0115965)
(9.89075e-05 0.000130489 0.0115622)
(7.13556e-05 0.000138097 0.0115303)
(4.31758e-05 0.000142039 0.0115074)
(1.38422e-05 0.000144887 0.0114962)
(-1.38388e-05 0.000144894 0.0114962)
(-4.3172e-05 0.000142031 0.0115074)
(-7.13497e-05 0.000138093 0.0115303)
(-9.89048e-05 0.000130485 0.0115622)
(-0.000123809 0.000123827 0.0115965)
(0.000130489 9.89065e-05 0.0115622)
(0.000101557 0.00010155 0.0115174)
(7.21731e-05 0.000106477 0.0114834)
(4.37488e-05 0.000108477 0.0114603)
(1.41096e-05 0.000110173 0.0114488)
(-1.41138e-05 0.000110162 0.0114488)
(-4.37409e-05 0.00010848 0.0114602)
(-7.21677e-05 0.000106479 0.0114834)
(-0.000101558 0.000101549 0.0115174)
(-0.00013048 9.89134e-05 0.0115622)
(0.000138108 7.13451e-05 0.0115303)
(0.000106479 7.21666e-05 0.0114834)
(7.7001e-05 7.7e-05 0.0114487)
(4.60333e-05 7.85343e-05 0.0114253)
(1.53262e-05 8.00423e-05 0.0114136)
(-1.53237e-05 8.00399e-05 0.0114136)
(-4.60332e-05 7.8528e-05 0.0114253)
(-7.69976e-05 7.70046e-05 0.0114487)
(-0.000106476 7.21673e-05 0.0114834)
(-0.0001381 7.13423e-05 0.0115303)
(0.000142042 4.31782e-05 0.0115074)
(0.000108486 4.37439e-05 0.0114602)
(7.85289e-05 4.60402e-05 0.0114253)
(4.68673e-05 4.68608e-05 0.0114017)
(1.56818e-05 4.758e-05 0.0113899)
(-1.56739e-05 4.75874e-05 0.0113899)
(-4.68671e-05 4.6852e-05 0.0114017)
(-7.85303e-05 4.60298e-05 0.0114253)
(-0.000108483 4.37429e-05 0.0114602)
(-0.000142036 4.31791e-05 0.0115074)
(0.000144902 1.3834e-05 0.0114962)
(0.000110167 1.41115e-05 0.0114488)
(8.00494e-05 1.53215e-05 0.0114136)
(4.75799e-05 1.56872e-05 0.0113899)
(1.60362e-05 1.60262e-05 0.011378)
(-1.60291e-05 1.60347e-05 0.011378)
(-4.75801e-05 1.5692e-05 0.0113899)
(-8.00519e-05 1.53192e-05 0.0114136)
(-0.000110168 1.41144e-05 0.0114488)
(-0.000144893 1.38279e-05 0.0114962)
(0.00014489 -1.38379e-05 0.0114962)
(0.00011017 -1.41154e-05 0.0114488)
(8.00505e-05 -1.53253e-05 0.0114136)
(4.75867e-05 -1.56902e-05 0.0113899)
(1.60268e-05 -1.60372e-05 0.011378)
(-1.6041e-05 -1.6032e-05 0.011378)
(-4.75746e-05 -1.56884e-05 0.0113899)
(-8.00591e-05 -1.53205e-05 0.0114136)
(-0.000110163 -1.41131e-05 0.0114488)
(-0.000144888 -1.38393e-05 0.0114962)
(0.000142039 -4.31841e-05 0.0115074)
(0.000108479 -4.37476e-05 0.0114602)
(7.85348e-05 -4.60289e-05 0.0114253)
(4.68672e-05 -4.68653e-05 0.0114017)
(1.56801e-05 -4.75849e-05 0.0113899)
(-1.56819e-05 -4.75786e-05 0.0113899)
(-4.68673e-05 -4.68564e-05 0.0114017)
(-7.85296e-05 -4.60324e-05 0.0114253)
(-0.000108474 -4.3748e-05 0.0114602)
(-0.000142029 -4.31836e-05 0.0115074)
(0.000138107 -7.13411e-05 0.0115303)
(0.000106476 -7.2165e-05 0.0114834)
(7.70112e-05 -7.70123e-05 0.0114487)
(4.60308e-05 -7.85405e-05 0.0114253)
(1.53158e-05 -8.00488e-05 0.0114136)
(-1.53231e-05 -8.00474e-05 0.0114136)
(-4.60231e-05 -7.85325e-05 0.0114253)
(-7.70053e-05 -7.7008e-05 0.0114487)
(-0.000106474 -7.21695e-05 0.0114834)
(-0.000138102 -7.13434e-05 0.0115303)
(0.000130489 -9.89077e-05 0.0115622)
(0.000101558 -0.000101552 0.0115174)
(7.21739e-05 -0.000106485 0.0114834)
(4.37516e-05 -0.000108469 0.0114602)
(1.41154e-05 -0.000110162 0.0114488)
(-1.41137e-05 -0.000110171 0.0114488)
(-4.37438e-05 -0.000108482 0.0114602)
(-7.21675e-05 -0.000106486 0.0114834)
(-0.000101556 -0.000101553 0.0115174)
(-0.000130485 -9.89046e-05 0.0115622)
(0.000123816 -0.000123823 0.0115965)
(9.89287e-05 -0.000130487 0.0115622)