/*--------------------------------*- C++ -*----------------------------------*\
| =========                 |                                                 |
| \\      /  F ield         | OpenFOAM: The Open Source CFD Toolbox           |
|  \\    /   O peration     | Version:  2406                                  |
|   \\  /    A nd           | Website:  www.openfoam.com                      |
|    \\/     M anipulation  |                                                 |
\*---------------------------------------------------------------------------*/
FoamFile
{
    version     2.0;
    format      ascii;
    arch        "LSB;label=32;scalar=64";
    class       surfaceScalarField;
    location    "4";
    object      phi;
}
// * * * * * * * * * * * * * * * * * * * * * * * * * * * * * * * * * * * * * //

dimensions      [0 3 -1 0 0 0 0];

oriented        oriented;

internalField   nonuniform List<scalar> 
43700
(
1.81583e-08
1.81574e-08
4.79356e-07
-2.28274e-08
-2.28257e-08
1.35065e-08
1.66658e-08
5.18564e-07
-2.11962e-08
8.95331e-09
1.54339e-08
5.48369e-07
-1.98193e-08
4.47825e-09
1.47308e-08
5.68463e-07
-1.90082e-08
-3.64042e-13
1.4313e-08
5.78558e-07
-1.84646e-08
-4.47843e-09
1.43132e-08
5.78558e-07
-1.84643e-08
-8.95349e-09
1.47319e-08
5.68463e-07
-1.9007e-08
-1.35067e-08
1.5435e-08
5.4837e-07
-1.982e-08
-1.8157e-08
1.66673e-08
5.18563e-07
-2.11954e-08
1.81577e-08
4.79356e-07
-2.28267e-08
-2.28271e-08
1.66668e-08
1.35066e-08
5.18564e-07
-2.11969e-08
1.22989e-08
1.22986e-08
5.54579e-07
8.05554e-09
1.13421e-08
5.82025e-07
4.00151e-09
1.07503e-08
6.00533e-07
5.27665e-13
1.04314e-08
6.09854e-07
-4.00027e-09
1.04315e-08
6.09854e-07
-8.05459e-09
1.07507e-08
6.00533e-07
-1.22986e-08
1.13428e-08
5.82025e-07
-1.6667e-08
1.22986e-08
5.5458e-07
1.35066e-08
5.18563e-07
-2.11956e-08
1.54346e-08
8.95385e-09
5.48369e-07
-1.98212e-08
1.13427e-08
8.05619e-09
5.82025e-07
7.42216e-09
7.42165e-09
6.07716e-07
3.67774e-09
7.0096e-09
6.25048e-07
4.70224e-13
6.80276e-09
6.33784e-07
-3.67682e-09
6.80257e-09
6.33783e-07
-7.42157e-09
7.00894e-09
6.25048e-07
-1.13435e-08
7.4207e-09
6.07715e-07
-1.54349e-08
8.05567e-09
5.82025e-07
8.95373e-09
5.48369e-07
-1.98206e-08
1.47326e-08
4.47766e-09
5.68462e-07
-1.90084e-08
1.07509e-08
4.00035e-09
6.00533e-07
7.00984e-09
3.67735e-09
6.25048e-07
3.46088e-09
3.46037e-09
6.41601e-07
2.48698e-14
3.35533e-09
6.4995e-07
-3.46042e-09
3.35534e-09
6.4995e-07
-7.00948e-09
3.45982e-09
6.41601e-07
-1.07512e-08
3.67636e-09
6.25048e-07
-1.47325e-08
3.99972e-09
6.00533e-07
4.47812e-09
5.68463e-07
-1.90083e-08
1.43137e-08
-2.11106e-13
5.78558e-07
-1.84651e-08
1.04318e-08
5.02706e-13
6.09854e-07
6.80415e-09
-3.71006e-13
6.33784e-07
3.35506e-09
-9.53921e-13
6.4995e-07
1.45763e-13
-6.43062e-13
6.58104e-07
-3.35541e-09
-4.06003e-13
6.58104e-07
-6.80272e-09
-7.81509e-14
6.49949e-07
-1.04319e-08
-3.91145e-13
6.33783e-07
-1.43131e-08
-6.22715e-13
6.09854e-07
-5.86758e-13
5.78558e-07
-1.84652e-08
1.43139e-08
-4.47749e-09
5.78558e-07
-1.84641e-08
1.04308e-08
-4.00072e-09
6.09855e-07
6.8027e-09
-3.67712e-09
6.33784e-07
3.35655e-09
-3.46014e-09
6.49949e-07
3.94505e-13
-3.35636e-09
6.58105e-07
-3.35494e-09
-3.3559e-09
6.58104e-07
-6.80285e-09
-3.46001e-09
6.4995e-07
-1.04321e-08
-3.67803e-09
6.33783e-07
-1.43135e-08
-4.00091e-09
6.09855e-07
-4.47852e-09
5.78558e-07
-1.84654e-08
1.47331e-08
-8.95325e-09
5.68462e-07
-1.90078e-08
1.07504e-08
-8.05555e-09
6.00533e-07
7.00932e-09
-7.42164e-09
6.25048e-07
3.4607e-09
-7.01044e-09
6.41601e-07
1.22403e-12
-6.8032e-09
6.4995e-07
-3.46017e-09
-6.80413e-09
6.49949e-07
-7.01026e-09
-7.0102e-09
6.41601e-07
-1.07505e-08
-7.42146e-09
6.25048e-07
-1.47329e-08
-8.05579e-09
6.00533e-07
-8.95299e-09
5.68462e-07
-1.90082e-08
1.54348e-08
-1.35066e-08
5.48369e-07
-1.98198e-08
1.13418e-08
-1.22988e-08
5.82025e-07
7.42177e-09
-1.13424e-08
6.07716e-07
3.67772e-09
-1.07506e-08
6.25048e-07
-8.77725e-14
-1.04314e-08
6.33784e-07
-3.67705e-09
-1.04314e-08
6.33784e-07
-7.42177e-09
-1.07509e-08
6.25048e-07
-1.1343e-08
-1.13441e-08
6.07715e-07
-1.54344e-08
-1.23e-08
5.82026e-07
-1.35072e-08
5.48369e-07
-1.982e-08
1.6667e-08
-1.81574e-08
5.18564e-07
-2.11954e-08
1.22978e-08
-1.66674e-08
5.54579e-07
8.05545e-09
-1.54343e-08
5.82025e-07
4.00071e-09
-1.47328e-08
6.00533e-07
4.52132e-13
-1.43134e-08
6.09855e-07
-4.00006e-09
-1.43144e-08
6.09855e-07
-8.05658e-09
-1.47331e-08
6.00532e-07
-1.2298e-08
-1.54347e-08
5.82025e-07
-1.66661e-08
-1.66671e-08
5.54579e-07
-1.81584e-08
5.18564e-07
-2.11962e-08
1.81567e-08
4.79356e-07
-2.28271e-08
-2.28257e-08
1.3506e-08
5.18564e-07
-2.11964e-08
8.95333e-09
5.48369e-07
-1.98209e-08
4.47803e-09
5.68464e-07
-1.90089e-08
1.0525e-13
5.78558e-07
-1.84648e-08
-4.47745e-09
5.78558e-07
-1.84652e-08
-8.95363e-09
5.68462e-07
-1.90086e-08
-1.3506e-08
5.48369e-07
-1.98208e-08
-1.81571e-08
5.18563e-07
-2.11954e-08
4.79356e-07
-2.28264e-08
-2.28264e-08
2.96248e-08
2.96237e-08
4.90493e-07
-3.51928e-08
-3.51931e-08
2.16037e-08
2.49003e-08
5.29873e-07
-2.81892e-08
1.44263e-08
2.30561e-08
5.59805e-07
-2.7316e-08
7.19315e-09
2.15707e-08
5.79982e-07
-2.58556e-08
-3.51495e-13
2.08929e-08
5.90104e-07
-2.52467e-08
-7.19241e-09
2.08936e-08
5.90103e-07
-2.52461e-08
-1.44265e-08
2.15705e-08
5.79982e-07
-2.58562e-08
-2.16032e-08
2.30565e-08
5.59806e-07
-2.73162e-08
-2.96239e-08
2.49009e-08
5.29873e-07
-2.81902e-08
2.9624e-08
4.90493e-07
-3.51925e-08
-3.51922e-08
2.49003e-08
2.16032e-08
5.29873e-07
-2.81898e-08
1.91932e-08
1.91925e-08
5.65994e-07
1.31209e-08
1.77149e-08
5.93437e-07
6.62701e-09
1.66525e-08
6.11943e-07
2.45048e-13
1.61269e-08
6.21247e-07
-6.62741e-09
1.6127e-08
6.21248e-07
-1.31207e-08
1.66534e-08
6.11944e-07
-1.91925e-08
1.77158e-08
5.93438e-07
-2.49001e-08
1.91932e-08
5.65995e-07
2.16041e-08
5.29873e-07
-2.81885e-08
2.30563e-08
1.44269e-08
5.59806e-07
-2.73159e-08
1.77149e-08
1.31204e-08
5.93438e-07
1.20414e-08
1.20419e-08
6.19062e-07
6.08198e-09
1.13231e-08
6.36337e-07
1.66895e-13
1.09574e-08
6.45035e-07
-6.08094e-09
1.09573e-08
6.45035e-07
-1.2041e-08
1.13236e-08
6.36338e-07
-1.77147e-08
1.20429e-08
6.19062e-07
-2.30557e-08
1.31214e-08
5.93439e-07
1.44271e-08
5.59806e-07
-2.73159e-08
2.15702e-08
7.19327e-09
5.79981e-07
-2.58563e-08
1.66525e-08
6.62753e-09
6.11944e-07
1.13232e-08
6.0818e-09
6.36337e-07
5.72586e-09
5.7259e-09
6.52796e-07
6.52188e-13
5.54157e-09
6.61091e-07
-5.7252e-09
5.54116e-09
6.61091e-07
-1.13229e-08
5.72621e-09
6.52796e-07
-1.66519e-08
6.08184e-09
6.36338e-07
-2.15701e-08
6.62788e-09
6.11943e-07
7.19306e-09
5.79982e-07
-2.58559e-08
2.08931e-08
5.71979e-13
5.90103e-07
-2.52461e-08
1.61262e-08
1.04029e-12
6.21248e-07
1.0956e-08
6.49623e-13
6.45035e-07
5.54184e-09
9.40754e-14
6.61092e-07
8.16991e-13
3.19611e-13
6.69186e-07
-5.54068e-09
9.77447e-13
6.69186e-07
-1.09565e-08
6.35831e-13
6.61091e-07
-1.6126e-08
1.05473e-12
6.45035e-07
-2.08932e-08
4.95827e-13
6.21248e-07
4.76258e-13
5.90103e-07
-2.52455e-08
2.08935e-08
-7.19248e-09
5.90104e-07
-2.52461e-08
1.61267e-08
-6.62698e-09
6.21248e-07
1.09571e-08
-6.08096e-09
6.45036e-07
5.5412e-09
-5.72532e-09
6.61091e-07
-1.62535e-13
-5.54087e-09
6.69186e-07
-5.54089e-09
-5.54008e-09
6.69186e-07
-1.0956e-08
-5.72566e-09
6.61091e-07
-1.61268e-08
-6.08113e-09
6.45035e-07
-2.08923e-08
-6.62685e-09
6.21248e-07
-7.19239e-09
5.90103e-07
-2.52452e-08
2.15696e-08
-1.44259e-08
5.79982e-07
-2.58548e-08
1.66528e-08
-1.31202e-08
6.11943e-07
1.13243e-08
-1.20414e-08
6.36337e-07
5.72617e-09
-1.13234e-08
6.52796e-07
-4.01346e-13
-1.09563e-08
6.61091e-07
-5.72544e-09
-1.09561e-08
6.61091e-07
-1.13226e-08
-1.13233e-08
6.52796e-07
-1.66526e-08
-1.20415e-08
6.36338e-07
-2.15696e-08
-1.31202e-08
6.11943e-07
-1.44265e-08
5.79981e-07
-2.58552e-08
2.30551e-08
-2.16033e-08
5.59806e-07
-2.73156e-08
1.77149e-08
-1.91927e-08
5.93438e-07
1.20417e-08
-1.77151e-08
6.19062e-07
6.08141e-09
-1.6652e-08
6.36337e-07
1.57251e-13
-1.61265e-08
6.45035e-07
-6.08102e-09
-1.61262e-08
6.45035e-07
-1.20406e-08
-1.66519e-08
6.36337e-07
-1.77144e-08
-1.77152e-08
6.19062e-07
-2.30553e-08
-1.91922e-08
5.93438e-07
-2.16029e-08
5.59806e-07
-2.73154e-08
2.49001e-08
-2.96234e-08
5.29873e-07
-2.81888e-08
1.91932e-08
-2.49001e-08
5.65994e-07
1.31208e-08
-2.30556e-08
5.93438e-07
6.62752e-09
-2.15696e-08
6.11943e-07
3.37404e-13
-2.0893e-08
6.21248e-07
-6.62704e-09
-2.08932e-08
6.21248e-07
-1.31202e-08
-2.15703e-08
6.11943e-07
-1.91923e-08
-2.30561e-08
5.93437e-07
-2.48999e-08
-2.48993e-08
5.65994e-07
-2.96229e-08
5.29874e-07
-2.81887e-08
2.96234e-08
4.90494e-07
-3.51926e-08
-3.51931e-08
2.16041e-08
5.29874e-07
-2.81897e-08
1.4426e-08
5.59806e-07
-2.73157e-08
7.19259e-09
5.79982e-07
-2.58545e-08
1.00574e-13
5.90103e-07
-2.52462e-08
-7.19279e-09
5.90103e-07
-2.52458e-08
-1.44259e-08
5.79982e-07
-2.58553e-08
-2.16023e-08
5.59805e-07
-2.73148e-08
-2.96234e-08
5.29873e-07
-2.81893e-08
4.90494e-07
-3.51915e-08
-3.51933e-08
3.39197e-08
3.39195e-08
5.02233e-07
-3.97886e-08
-3.97884e-08
2.51624e-08
2.88565e-08
5.42151e-07
-3.23779e-08
1.69862e-08
2.71071e-08
5.72474e-07
-3.16002e-08
8.488e-09
2.53421e-08
5.92889e-07
-2.97518e-08
-7.52319e-13
2.4645e-08
6.03127e-07
-2.91791e-08
-8.48852e-09
2.46446e-08
6.03127e-07
-2.91788e-08
-1.69855e-08
2.53419e-08
5.92889e-07
-2.9752e-08
-2.51625e-08
2.71074e-08
5.72474e-07
-3.15997e-08
-3.3919e-08
2.88561e-08
5.42151e-07
-3.23772e-08
3.39193e-08
5.02232e-07
-3.97887e-08
-3.97886e-08
2.88568e-08
2.51626e-08
5.42151e-07
-3.23775e-08
2.2491e-08
2.24913e-08
5.78724e-07
1.55452e-08
2.1045e-08
6.06445e-07
7.88305e-09
1.98246e-08
6.25121e-07
-3.5618e-14
1.92806e-08
6.34495e-07
-7.88325e-09
1.92803e-08
6.34495e-07
-1.55447e-08
1.98251e-08
6.25121e-07
-2.2491e-08
2.10448e-08
6.06446e-07
-2.88567e-08
2.24905e-08
5.78725e-07
2.51628e-08
5.42151e-07
-3.23779e-08
2.71072e-08
1.69856e-08
5.72474e-07
-3.16e-08
2.10452e-08
1.55444e-08
6.06446e-07
1.44418e-08
1.44421e-08
6.32269e-07
7.31699e-09
1.3627e-08
6.4966e-07
-1.03768e-12
1.32281e-08
6.58404e-07
-7.31707e-09
1.32292e-08
6.58404e-07
-1.44419e-08
1.3627e-08
6.4966e-07
-2.10455e-08
1.44412e-08
6.32269e-07
-2.71069e-08
1.55444e-08
6.06446e-07
1.69856e-08
5.72474e-07
-3.15998e-08
2.53417e-08
8.48865e-09
5.92889e-07
-2.97518e-08
1.98257e-08
7.88173e-09
6.25121e-07
1.3627e-08
7.31641e-09
6.4966e-07
6.92723e-09
6.92684e-09
6.66197e-07
-6.01647e-13
6.72513e-09
6.7452e-07
-6.92715e-09
6.72569e-09
6.74521e-07
-1.36266e-08
6.92701e-09
6.66197e-07
-1.98263e-08
7.3173e-09
6.49661e-07
-2.53414e-08
7.88281e-09
6.25121e-07
8.48767e-09
5.92889e-07
-2.97517e-08
2.46448e-08
-2.60193e-13
6.03127e-07
-2.91797e-08
1.92813e-08
-2.00306e-13
6.34494e-07
1.32286e-08
-1.30029e-12
6.58404e-07
6.72587e-09
-4.35347e-13
6.74521e-07
3.05607e-13
-6.09197e-13
6.82637e-07
-6.72617e-09
-7.14958e-13
6.82638e-07
-1.32288e-08
-5.1876e-13
6.7452e-07
-1.92805e-08
-5.88989e-13
6.58404e-07
-2.46449e-08
-9.57145e-13
6.34496e-07
-8.54623e-13
6.03127e-07
-2.91794e-08
2.46445e-08
-8.48921e-09
6.03127e-07
-2.91793e-08
1.92807e-08
-7.88339e-09
6.34495e-07
1.32284e-08
-7.31799e-09
6.58404e-07
6.72573e-09
-6.92715e-09
6.74521e-07
-2.48214e-13
-6.7262e-09
6.82637e-07
-6.72612e-09
-6.72528e-09
6.82637e-07
-1.32287e-08
-6.92656e-09
6.74521e-07
-1.92803e-08
-7.31793e-09
6.58405e-07
-2.46451e-08
-7.88335e-09
6.34495e-07
-8.4891e-09
6.03127e-07
-2.918e-08
2.53415e-08
-1.69871e-08
5.92889e-07
-2.97524e-08
1.98247e-08
-1.5545e-08
6.25121e-07
1.36278e-08
-1.44424e-08
6.4966e-07
6.92738e-09
-1.36282e-08
6.66197e-07
4.68143e-13
-1.32294e-08
6.74521e-07
-6.92725e-09
-1.32299e-08
6.74521e-07
-1.36274e-08
-1.36282e-08
6.66197e-07
-1.98256e-08
-1.44425e-08
6.49659e-07
-2.53416e-08
-1.55453e-08
6.25121e-07
-1.69867e-08
5.92889e-07
-2.97521e-08
2.71074e-08
-2.51634e-08
5.72475e-07
-3.15994e-08
2.10456e-08
-2.24915e-08
6.06446e-07
1.44426e-08
-2.10456e-08
6.32268e-07
7.31764e-09
-1.98261e-08
6.49659e-07
9.94115e-15
-1.92814e-08
6.58404e-07
-7.31778e-09
-1.92812e-08
6.58405e-07
-1.44421e-08
-1.98263e-08
6.4966e-07
-2.10458e-08
-2.10461e-08
6.32268e-07
-2.7107e-08
-2.24922e-08
6.06446e-07
-2.51633e-08
5.72474e-07
-3.1599e-08
2.88566e-08
-3.392e-08
5.42151e-07
-3.23774e-08
2.24913e-08
-2.8857e-08
5.78724e-07
1.55452e-08
-2.71078e-08
6.06446e-07
7.88283e-09
-2.53425e-08
6.25121e-07
4.34494e-13
-2.4645e-08
6.34495e-07
-7.88334e-09
-2.46448e-08
6.34495e-07
-1.55449e-08
-2.53423e-08
6.25121e-07
-2.24913e-08
-2.71081e-08
6.06445e-07
-2.88568e-08
-2.88571e-08
5.78724e-07
-3.392e-08
5.42151e-07
-3.23773e-08
3.39195e-08
5.02233e-07
-3.97894e-08
-3.97894e-08
2.51629e-08
5.42151e-07
-3.23776e-08
1.69863e-08
5.72474e-07
-3.16002e-08
8.48844e-09
5.92889e-07
-2.97531e-08
4.35441e-13
6.03126e-07
-2.91804e-08
-8.48854e-09
6.03126e-07
-2.91799e-08
-1.6986e-08
5.9289e-07
-2.97524e-08
-2.51624e-08
5.72473e-07
-3.16003e-08
-3.39195e-08
5.42151e-07
-3.23778e-08
5.02233e-07
-3.97899e-08
-3.97891e-08
3.38695e-08
3.38693e-08
5.1372e-07
-3.96129e-08
-3.96135e-08
2.55585e-08
2.94308e-08
5.54337e-07
-3.33069e-08
1.73588e-08
2.80271e-08
5.8518e-07
-3.25328e-08
8.70293e-09
2.63812e-08
6.05913e-07
-3.075e-08
-4.37376e-14
2.58037e-08
6.16315e-07
-3.02893e-08
-8.7028e-09
2.58044e-08
6.16316e-07
-3.029e-08
-1.7358e-08
2.63822e-08
6.05912e-07
-3.07494e-08
-2.55586e-08
2.80278e-08
5.85181e-07
-3.25333e-08
-3.38688e-08
2.94311e-08
5.54338e-07
-3.33071e-08
3.38708e-08
5.1372e-07
-3.96135e-08
-3.96129e-08
2.94301e-08
2.55588e-08
5.54339e-07
-3.33066e-08
2.30383e-08
2.30383e-08
5.91508e-07
1.59635e-08
2.18732e-08
6.19675e-07
8.11219e-09
2.07284e-08
6.38626e-07
5.3277e-13
2.02782e-08
6.48133e-07
-8.1114e-09
2.02773e-08
6.48133e-07
-1.59627e-08
2.07282e-08
6.38626e-07
-2.30385e-08
2.18732e-08
6.19675e-07
-2.94301e-08
2.30386e-08
5.91508e-07
2.55588e-08
5.54338e-07
-3.33067e-08
2.80268e-08
1.73579e-08
5.8518e-07
-3.2533e-08
2.1873e-08
1.59631e-08
6.19675e-07
1.5073e-08
1.50729e-08
6.4587e-07
7.64838e-09
1.43143e-08
6.63497e-07
9.34201e-13
1.39744e-08
6.72355e-07
-7.64744e-09
1.39744e-08
6.72356e-07
-1.50723e-08
1.43143e-08
6.63498e-07
-2.18729e-08
1.50727e-08
6.4587e-07
-2.80273e-08
1.59634e-08
6.19675e-07
1.73582e-08
5.85181e-07
-3.25331e-08
2.63814e-08
8.7028e-09
6.05912e-07
-3.07502e-08
2.07276e-08
8.1124e-09
6.38625e-07
1.43149e-08
7.64804e-09
6.63498e-07
7.2906e-09
7.2898e-09
6.80245e-07
-1.7289e-13
7.11847e-09
6.88667e-07
-7.29012e-09
7.11969e-09
6.88667e-07
-1.43139e-08
7.29058e-09
6.80245e-07
-2.07273e-08
7.64876e-09
6.63498e-07
-2.63814e-08
8.11222e-09
6.38625e-07
8.70327e-09
6.05912e-07
-3.075e-08
2.58046e-08
4.35191e-13
6.16315e-07
-3.02901e-08
2.02767e-08
7.84063e-13
6.48133e-07
1.39745e-08
3.42403e-13
6.72355e-07
7.11854e-09
5.13324e-14
6.88666e-07
2.8994e-13
-2.75912e-14
6.96873e-07
-7.11812e-09
1.10251e-12
6.96874e-07
-1.3974e-08
9.61705e-13
6.88666e-07
-2.02774e-08
7.92719e-13
6.72355e-07
-2.5804e-08
8.05907e-13
6.48133e-07
6.56805e-13
6.16315e-07
-3.02902e-08
2.58041e-08
-8.70277e-09
6.16315e-07
-3.02898e-08
2.02778e-08
-8.11093e-09
6.48133e-07
1.39751e-08
-7.6471e-09
6.72355e-07
7.11841e-09
-7.28884e-09
6.88667e-07
-3.66837e-13
-7.1184e-09
6.96874e-07
-7.11884e-09
-7.11735e-09
6.96874e-07
-1.39741e-08
-7.28937e-09
6.88667e-07
-2.02771e-08
-7.64806e-09
6.72356e-07
-2.58039e-08
-8.11148e-09
6.48133e-07
-8.70301e-09
6.16316e-07
-3.02898e-08
2.63819e-08
-1.73578e-08
6.05912e-07
-3.07503e-08
2.07281e-08
-1.59623e-08
6.38626e-07
1.4314e-08
-1.50712e-08
6.63498e-07
7.29017e-09
-1.43132e-08
6.80245e-07
2.96586e-14
-1.39738e-08
6.88667e-07
-7.29052e-09
-1.39737e-08
6.88667e-07
-1.43137e-08
-1.43136e-08
6.80245e-07
-2.07278e-08
-1.50717e-08
6.63498e-07
-2.63819e-08
-1.5962e-08
6.38626e-07
-1.73568e-08
6.05912e-07
-3.075e-08
2.80272e-08
-2.55584e-08
5.85181e-07
-3.25332e-08
2.18729e-08
-2.30383e-08
6.19675e-07
1.50729e-08
-2.18726e-08
6.45869e-07
7.64814e-09
-2.07274e-08
6.63497e-07
-1.74103e-13
-2.02768e-08
6.72355e-07
-7.64764e-09
-2.0277e-08
6.72356e-07
-1.50718e-08
-2.07277e-08
6.63498e-07
-2.18728e-08
-2.1873e-08
6.4587e-07
-2.80264e-08
-2.30375e-08
6.19675e-07
-2.55577e-08
5.8518e-07
-3.25332e-08
2.94309e-08
-3.38696e-08
5.54338e-07
-3.33064e-08
2.30387e-08
-2.94304e-08
5.91508e-07
1.59639e-08
-2.80273e-08
6.19675e-07
8.11205e-09
-2.6382e-08
6.38625e-07
7.00336e-13
-2.58036e-08
6.48133e-07
-8.11213e-09
-2.58039e-08
6.48133e-07
-1.59635e-08
-2.63816e-08
6.38626e-07
-2.30383e-08
-2.80267e-08
6.19675e-07
-2.94303e-08
-2.94299e-08
5.91508e-07
-3.38691e-08
5.54339e-07
-3.3307e-08
3.38704e-08
5.1372e-07
-3.96127e-08
-3.96135e-08
2.5559e-08
5.54338e-07
-3.33067e-08
1.7358e-08
5.85181e-07
-3.25324e-08
8.70335e-09
6.05912e-07
-3.07499e-08
2.23343e-13
6.16315e-07
-3.02902e-08
-8.70284e-09
6.16315e-07
-3.02896e-08
-1.73577e-08
6.05912e-07
-3.07496e-08
-2.55584e-08
5.85181e-07
-3.25325e-08
-3.38698e-08
5.54338e-07
-3.33062e-08
5.13721e-07
-3.96125e-08
-3.96139e-08
3.09701e-08
3.09701e-08
5.24234e-07
-3.62274e-08
-3.62273e-08
2.37714e-08
2.76699e-08
5.65682e-07
-3.18162e-08
1.62159e-08
2.67009e-08
5.97111e-07
-3.10761e-08
8.16341e-09
2.54037e-08
6.18205e-07
-2.96427e-08
4.21705e-13
2.49955e-08
6.28798e-07
-2.93147e-08
-8.16331e-09
2.49951e-08
6.28798e-07
-2.93144e-08
-1.62157e-08
2.54034e-08
6.18204e-07
-2.96424e-08
-2.37718e-08
2.67015e-08
5.97111e-07
-3.10763e-08
-3.09693e-08
2.76706e-08
5.65682e-07
-3.18164e-08
3.09695e-08
5.24235e-07
-3.6227e-08
-3.62267e-08
2.76708e-08
2.37717e-08
5.65682e-07
-3.18171e-08
2.16693e-08
2.16691e-08
6.03511e-07
1.49855e-08
2.08647e-08
6.32193e-07
7.62118e-09
1.99262e-08
6.51467e-07
-2.01515e-13
1.96091e-08
6.6114e-07
-7.62124e-09
1.96087e-08
6.61141e-07
-1.49859e-08
1.99268e-08
6.51468e-07
-2.16685e-08
2.08655e-08
6.32194e-07
-2.76704e-08
2.16685e-08
6.03511e-07
2.37711e-08
5.65682e-07
-3.18158e-08
2.67023e-08
1.62157e-08
5.97111e-07
-3.10773e-08
2.08655e-08
1.49854e-08
6.32195e-07
1.43846e-08
1.43847e-08
6.58832e-07
7.29992e-09
1.37627e-08
6.76746e-07
-5.38064e-13
1.3518e-08
6.85746e-07
-7.30033e-09
1.35171e-08
6.85747e-07
-1.43848e-08
1.37621e-08
6.76745e-07
-2.08652e-08
1.43838e-08
6.58832e-07
-2.67016e-08
1.49857e-08
6.32194e-07
1.62157e-08
5.97112e-07
-3.10763e-08
2.54042e-08
8.16298e-09
6.18203e-07
-2.96428e-08
1.99266e-08
7.62102e-09
6.51468e-07
1.37631e-08
7.30092e-09
6.76746e-07
7.00671e-09
7.00716e-09
6.93757e-07
3.412e-13
6.88223e-09
7.02309e-07
-7.00656e-09
6.88146e-09
7.02309e-07
-1.37633e-08
7.0065e-09
6.93758e-07
-1.99273e-08
7.29983e-09
6.76745e-07
-2.54036e-08
7.62049e-09
6.51467e-07
8.16202e-09
6.18203e-07
-2.9642e-08
2.4996e-08
-7.98829e-14
6.28798e-07
-2.93154e-08
1.96084e-08
-4.07799e-13
6.61141e-07
1.3518e-08
-7.00422e-14
6.85746e-07
6.88297e-09
-8.77212e-13
7.02308e-07
-8.88705e-14
-3.20394e-13
7.10638e-07
-6.88261e-09
-2.83271e-13
7.10639e-07
-1.35182e-08
-1.09364e-12
7.02309e-07
-1.96092e-08
-1.92998e-13
6.85746e-07
-2.49952e-08
-1.25108e-12
6.6114e-07
-6.80309e-13
6.28798e-07
-2.93147e-08
2.49956e-08
-8.16367e-09
6.28798e-07
-2.93151e-08
1.96096e-08
-7.62127e-09
6.61141e-07
1.35174e-08
-7.30064e-09
6.85747e-07
6.88223e-09
-7.00716e-09
7.02309e-07
-8.19997e-13
-6.88316e-09
7.1064e-07
-6.88401e-09
-6.88305e-09
7.10639e-07
-1.3518e-08
-7.00807e-09
7.02308e-07
-1.96083e-08
-7.30082e-09
6.85746e-07
-2.4995e-08
-7.62191e-09
6.6114e-07
-8.16388e-09
6.28798e-07
-2.9315e-08
2.5403e-08
-1.62158e-08
6.18204e-07
-2.96429e-08
1.99264e-08
-1.49855e-08
6.51467e-07
1.37628e-08
-1.43851e-08
6.76746e-07
7.00681e-09
-1.3763e-08
6.93757e-07
-3.54803e-13
-1.35187e-08
7.02309e-07
-7.00687e-09
-1.35177e-08
7.02308e-07
-1.37629e-08
-1.37629e-08
6.93757e-07
-1.99264e-08
-1.43846e-08
6.76746e-07
-2.54035e-08
-1.49861e-08
6.51467e-07
-1.62162e-08
6.18203e-07
-2.96426e-08
2.6701e-08
-2.3772e-08
5.97111e-07
-3.10766e-08
2.08659e-08
-2.16693e-08
6.32194e-07
1.43844e-08
-2.08669e-08
6.58832e-07
7.30019e-09
-1.99271e-08
6.76746e-07
-9.65452e-13
-1.96093e-08
6.85747e-07
-7.30082e-09
-1.96094e-08
6.85746e-07
-1.43848e-08
-1.99276e-08
6.76746e-07
-2.08657e-08
-2.08663e-08
6.58832e-07
-2.67013e-08
-2.167e-08
6.32194e-07
-2.37726e-08
5.97111e-07
-3.10759e-08
2.76704e-08
-3.09698e-08
5.65681e-07
-3.18157e-08
2.16688e-08
-2.76711e-08
6.03511e-07
1.49852e-08
-2.67017e-08
6.32194e-07
7.62108e-09
-2.54045e-08
6.51467e-07
-6.13097e-13
-2.49958e-08
6.6114e-07
-7.62128e-09
-2.49953e-08
6.61141e-07
-1.49863e-08
-2.54045e-08
6.51467e-07
-2.16696e-08
-2.67016e-08
6.32194e-07
-2.76707e-08
-2.76709e-08
6.03511e-07
-3.09699e-08
5.65682e-07
-3.18156e-08
3.09698e-08
5.24235e-07
-3.62278e-08
-3.62271e-08
2.3771e-08
5.65682e-07
-3.18175e-08
1.62156e-08
5.97112e-07
-3.10765e-08
8.16396e-09
6.18203e-07
-2.96433e-08
-2.18341e-13
6.28798e-07
-2.93152e-08
-8.16384e-09
6.28797e-07
-2.93147e-08
-1.62161e-08
6.18203e-07
-2.96432e-08
-2.37716e-08
5.97111e-07
-3.10772e-08
-3.09692e-08
5.65682e-07
-3.18167e-08
5.24235e-07
-3.62271e-08
-3.62275e-08
2.70377e-08
2.70378e-08
5.33465e-07
-3.16521e-08
-3.16537e-08
2.10842e-08
2.49505e-08
5.7584e-07
-2.9155e-08
1.4435e-08
2.44071e-08
6.07882e-07
-2.85292e-08
7.29923e-09
2.35523e-08
6.29357e-07
-2.75687e-08
1.65342e-13
2.33222e-08
6.4015e-07
-2.73747e-08
-7.29845e-09
2.33217e-08
6.4015e-07
-2.7375e-08
-1.44353e-08
2.35529e-08
6.29356e-07
-2.75693e-08
-2.1084e-08
2.44067e-08
6.07882e-07
-2.85286e-08
-2.70381e-08
2.49503e-08
5.7584e-07
-2.91557e-08
2.70379e-08
5.33466e-07
-3.16542e-08
-3.16532e-08
2.49503e-08
2.10838e-08
5.7584e-07
-2.91545e-08
1.95235e-08
1.95225e-08
6.14366e-07
1.34524e-08
1.9084e-08
6.43586e-07
6.8433e-09
1.84236e-08
6.63206e-07
2.02575e-13
1.82449e-08
6.73061e-07
-6.84316e-09
1.82438e-08
6.73061e-07
-1.34528e-08
1.84227e-08
6.63207e-07
-1.9523e-08
1.90842e-08
6.43587e-07
-2.49505e-08
1.95227e-08
6.14366e-07
2.10832e-08
5.75841e-07
-2.91546e-08
2.44074e-08
1.4436e-08
6.07882e-07
-2.85291e-08
1.90845e-08
1.34528e-08
6.43587e-07
1.3147e-08
1.31474e-08
6.70705e-07
6.67342e-09
1.27062e-08
6.88936e-07
-3.60401e-13
1.25665e-08
6.98098e-07
-6.6741e-09
1.25667e-08
6.98099e-07
-1.3147e-08
1.27049e-08
6.88935e-07
-1.90837e-08
1.31473e-08
6.70705e-07
-2.4407e-08
1.34526e-08
6.43587e-07
1.4436e-08
6.07882e-07
-2.85295e-08
2.35531e-08
7.29896e-09
6.29356e-07
-2.75696e-08
1.84226e-08
6.84359e-09
6.63207e-07
1.27057e-08
6.6745e-09
6.88936e-07
6.46244e-09
6.46168e-09
7.06245e-07
2.37687e-13
6.39009e-09
7.14947e-07
-6.46155e-09
6.39094e-09
7.14946e-07
-1.27057e-08
6.4613e-09
7.06246e-07
-1.84228e-08
6.67467e-09
6.88935e-07
-2.35532e-08
6.84381e-09
6.63206e-07
7.29972e-09
6.29356e-07
-2.75693e-08
2.33222e-08
-6.88273e-15
6.4015e-07
-2.73747e-08
1.82445e-08
2.48937e-13
6.73061e-07
1.25668e-08
-5.01778e-13
6.98098e-07
6.39056e-09
-1.61169e-13
7.14946e-07
3.39861e-13
-3.33727e-13
7.2342e-07
-6.39074e-09
1.1337e-12
7.23421e-07
-1.25672e-08
4.95841e-13
7.14946e-07
-1.82445e-08
-3.3031e-13
6.98098e-07
-2.33223e-08
-2.31103e-13
6.73061e-07
-6.02126e-13
6.4015e-07
-2.73748e-08
2.33219e-08
-7.29955e-09
6.4015e-07
-2.73746e-08
1.82448e-08
-6.84318e-09
6.73061e-07
1.25669e-08
-6.67485e-09
6.98098e-07
6.39016e-09
-6.46241e-09
7.14947e-07
-8.46162e-13
-6.39172e-09
7.23422e-07
-6.39095e-09
-6.39045e-09
7.2342e-07
-1.25671e-08
-6.4612e-09
7.14946e-07
-1.82449e-08
-6.67404e-09
6.98098e-07
-2.33223e-08
-6.84307e-09
6.73061e-07
-7.2991e-09
6.40149e-07
-2.73741e-08
2.35526e-08
-1.44353e-08
6.29356e-07
-2.75694e-08
1.84223e-08
-1.34518e-08
6.63206e-07
1.27062e-08
-1.31469e-08
6.88936e-07
6.46277e-09
-1.27063e-08
7.06244e-07
-4.27053e-13
-1.25673e-08
7.14947e-07
-6.46229e-09
-1.25661e-08
7.14947e-07
-1.27058e-08
-1.27059e-08
7.06245e-07
-1.8422e-08
-1.31474e-08
6.88936e-07
-2.35521e-08
-1.34522e-08
6.63206e-07
-1.44358e-08
6.29356e-07
-2.75693e-08
2.44061e-08
-2.10825e-08
6.07881e-07
-2.85291e-08
1.90832e-08
-1.95223e-08
6.43587e-07
1.31473e-08
-1.90839e-08
6.70705e-07
6.67435e-09
-1.84225e-08
6.88935e-07
-9.95945e-13
-1.82439e-08
6.98098e-07
-6.67443e-09
-1.82442e-08
6.98098e-07
-1.3147e-08
-1.84223e-08
6.88936e-07
-1.90837e-08
-1.90839e-08
6.70705e-07
-2.44057e-08
-1.95227e-08
6.43587e-07
-2.10833e-08
6.07881e-07
-2.85289e-08
2.49504e-08
-2.70368e-08
5.7584e-07
-2.91548e-08
1.95224e-08
-2.49505e-08
6.14366e-07
1.34523e-08
-2.44068e-08
6.43587e-07
6.8432e-09
-2.35518e-08
6.63206e-07
2.17194e-13
-2.33216e-08
6.73061e-07
-6.84347e-09
-2.33215e-08
6.73062e-07
-1.34527e-08
-2.35523e-08
6.63206e-07
-1.95231e-08
-2.44065e-08
6.43587e-07
-2.49503e-08
-2.49503e-08
6.14366e-07
-2.70367e-08
5.75841e-07
-2.91549e-08
2.70373e-08
5.33466e-07
-3.16521e-08
-3.16528e-08
2.10834e-08
5.7584e-07
-2.91553e-08
1.44353e-08
6.07882e-07
-2.85287e-08
7.29895e-09
6.29356e-07
-2.75686e-08
-2.82911e-13
6.4015e-07
-2.73746e-08
-7.29991e-09
6.4015e-07
-2.73742e-08
-1.44352e-08
6.29356e-07
-2.75689e-08
-2.10839e-08
6.07882e-07
-2.85284e-08
-2.70379e-08
5.7584e-07
-2.91549e-08
5.33466e-07
-3.16531e-08
-3.1653e-08
2.32273e-08
2.32281e-08
5.41433e-07
-2.72108e-08
-2.72114e-08
1.83395e-08
2.20417e-08
5.84788e-07
-2.61023e-08
1.25903e-08
2.17845e-08
6.17438e-07
-2.55914e-08
6.38952e-09
2.12972e-08
6.39294e-07
-2.50336e-08
7.44791e-13
2.11974e-08
6.50281e-07
-2.49394e-08
-6.38965e-09
2.11972e-08
6.50282e-07
-2.49398e-08
-1.25903e-08
2.12972e-08
6.39294e-07
-2.50336e-08
-1.83394e-08
2.17845e-08
6.17438e-07
-2.55921e-08
-2.32281e-08
2.20417e-08
5.84789e-07
-2.61019e-08
2.32279e-08
5.41433e-07
-2.72112e-08
-2.72108e-08
2.20413e-08
1.83398e-08
5.84788e-07
-2.61016e-08
1.72144e-08
1.72146e-08
6.2402e-07
1.18076e-08
1.70222e-08
6.53756e-07
6.00266e-09
1.65952e-08
6.73712e-07
-5.63287e-13
1.65183e-08
6.83744e-07
-6.00319e-09
1.65183e-08
6.83744e-07
-1.18071e-08
1.65956e-08
6.73713e-07
-1.72144e-08
1.70221e-08
6.53757e-07
-2.20422e-08
1.72145e-08
6.2402e-07
1.83399e-08
5.84789e-07
-2.6102e-08
2.17848e-08
1.259e-08
6.17438e-07
-2.55907e-08
1.70229e-08
1.18076e-08
6.53757e-07
1.17046e-08
1.17048e-08
6.8134e-07
5.94057e-09
1.14148e-08
6.99879e-07
-8.75781e-15
1.1355e-08
7.09202e-07
-5.94115e-09
1.13554e-08
7.09202e-07
-1.17043e-08
1.14146e-08
6.99879e-07
-1.70223e-08
1.1705e-08
6.8134e-07
-2.1785e-08
1.18079e-08
6.53756e-07
1.25904e-08
6.17438e-07
-2.55915e-08
2.12969e-08
6.38886e-09
6.39294e-07
-2.5033e-08
1.65956e-08
6.00343e-09
6.73713e-07
1.14148e-08
5.94162e-09
6.99879e-07
5.79739e-09
5.79626e-09
7.1748e-07
5.55593e-13
5.76518e-09
7.26333e-07
-5.79632e-09
5.76624e-09
7.26333e-07
-1.14148e-08
5.79632e-09
7.17481e-07
-1.65963e-08
5.94128e-09
6.9988e-07
-2.12975e-08
6.00267e-09
6.73712e-07
6.38847e-09
6.39294e-07
-2.50334e-08
2.11973e-08
-3.00661e-13
6.50281e-07
-2.49393e-08
1.65177e-08
-3.70999e-13
6.83744e-07
1.1356e-08
5.52829e-13
7.09202e-07
5.76618e-09
3.16133e-13
7.26333e-07
8.99816e-14
-3.29402e-13
7.34951e-07
-5.76573e-09
3.08897e-13
7.34952e-07
-1.13557e-08
4.16471e-13
7.26333e-07
-1.65182e-08
6.45986e-13
7.09202e-07
-2.11973e-08
-6.45188e-13
6.83744e-07
-6.38619e-13
6.50281e-07
-2.49394e-08
2.11971e-08
-6.3899e-09
6.50281e-07
-2.49394e-08
1.65179e-08
-6.0025e-09
6.83744e-07
1.13548e-08
-5.94106e-09
7.09202e-07
5.76559e-09
-5.79643e-09
7.26333e-07
6.08403e-14
-5.76668e-09
7.34953e-07
-5.76573e-09
-5.76579e-09
7.34952e-07
-1.13563e-08
-5.7957e-09
7.26333e-07
-1.65182e-08
-5.94111e-09
7.09202e-07
-2.11979e-08
-6.00334e-09
6.83744e-07
-6.3898e-09
6.50281e-07
-2.49403e-08
2.12968e-08
-1.25903e-08
6.39294e-07
-2.50344e-08
1.65945e-08
-1.18072e-08
6.73712e-07
1.14154e-08
-1.17052e-08
6.99879e-07
5.79819e-09
-1.14153e-08
7.17481e-07
4.34729e-13
-1.13556e-08
7.26334e-07
-5.79716e-09
-1.13557e-08
7.26334e-07
-1.14153e-08
-1.14151e-08
7.17481e-07
-1.65954e-08
-1.17056e-08
6.9988e-07
-2.12975e-08
-1.18074e-08
6.73712e-07
-1.25909e-08
6.39294e-07
-2.50341e-08
2.1785e-08
-1.83393e-08
6.17438e-07
-2.55916e-08
1.70229e-08
-1.72154e-08
6.53757e-07
1.17054e-08
-1.70228e-08
6.81339e-07
5.94178e-09
-1.65956e-08
6.99879e-07
-5.42365e-13
-1.65171e-08
7.09202e-07
-5.94221e-09
-1.65177e-08
7.09202e-07
-1.17048e-08
-1.65957e-08
6.9988e-07
-1.70224e-08
-1.70231e-08
6.81339e-07
-2.17847e-08
-1.72149e-08
6.53757e-07
-1.83403e-08
6.17437e-07
-2.55918e-08
2.20415e-08
-2.32282e-08
5.84789e-07
-2.61019e-08
1.72148e-08
-2.20422e-08
6.2402e-07
1.18074e-08
-2.17848e-08
6.53756e-07
6.00295e-09
-2.1297e-08
6.73712e-07
1.02309e-13
-2.11973e-08
6.83744e-07
-6.00336e-09
-2.1197e-08
6.83745e-07
-1.18081e-08
-2.12975e-08
6.73712e-07
-1.7215e-08
-2.17855e-08
6.53757e-07
-2.20416e-08
-2.20418e-08
6.2402e-07
-2.32277e-08
5.84789e-07
-2.61012e-08
2.32279e-08
5.41433e-07
-2.72117e-08
-2.72111e-08
1.83401e-08
5.84789e-07
-2.61023e-08
1.259e-08
6.17438e-07
-2.55915e-08
6.38854e-09
6.39294e-07
-2.50339e-08
2.6786e-13
6.50281e-07
-2.49395e-08
-6.38928e-09
6.50282e-07
-2.49392e-08
-1.25905e-08
6.39294e-07
-2.5034e-08
-1.83398e-08
6.17438e-07
-2.55921e-08
-2.32281e-08
5.84789e-07
-2.61017e-08
5.41432e-07
-2.72113e-08
-2.72107e-08
2.00073e-08
2.00066e-08
5.4826e-07
-2.34207e-08
-2.34207e-08
1.59387e-08
1.93864e-08
5.92614e-07
-2.31431e-08
1.09645e-08
1.92944e-08
6.25849e-07
-2.27318e-08
5.57798e-09
1.90549e-08
6.4807e-07
-2.24439e-08
2.21128e-13
1.90384e-08
6.59237e-07
-2.24162e-08
-5.57693e-09
1.90385e-08
6.59238e-07
-2.24164e-08
-1.09642e-08
1.90548e-08
6.4807e-07
-2.24444e-08
-1.59384e-08
1.92945e-08
6.25849e-07
-2.27317e-08
-2.00068e-08
1.93869e-08
5.92615e-07
-2.31436e-08
2.00074e-08
5.48259e-07
-2.34217e-08
-2.34195e-08
1.93871e-08
1.59379e-08
5.92614e-07
-2.31447e-08
1.5122e-08
1.5121e-08
6.32549e-07
1.03348e-08
1.50745e-08
6.62764e-07
5.24898e-09
1.48146e-08
6.83038e-07
-3.95863e-13
1.4798e-08
6.93234e-07
-5.24888e-09
1.47971e-08
6.93234e-07
-1.03335e-08
1.48141e-08
6.83038e-07
-1.5122e-08
1.50745e-08
6.62765e-07
-1.93862e-08
1.51223e-08
6.32549e-07
1.5938e-08
5.92615e-07
-2.31432e-08
1.92951e-08
1.09642e-08
6.25849e-07
-2.27329e-08
1.50755e-08
1.03342e-08
6.62764e-07
1.03519e-08
1.03515e-08
6.90786e-07
5.25456e-09
1.017e-08
7.09621e-07
3.54768e-13
1.01587e-08
7.19096e-07
-5.25437e-09
1.01587e-08
7.19095e-07
-1.03507e-08
1.01689e-08
7.09621e-07
-1.50741e-08
1.03513e-08
6.90786e-07
-1.92944e-08
1.03343e-08
6.62765e-07
1.09644e-08
6.25849e-07
-2.27322e-08
1.90553e-08
5.5776e-09
6.48069e-07
-2.24452e-08
1.48143e-08
5.25e-09
6.83038e-07
1.01704e-08
5.25506e-09
7.09621e-07
5.15982e-09
5.15937e-09
7.27502e-07
1.32339e-12
5.15195e-09
7.36499e-07
-5.15875e-09
5.15323e-09
7.36498e-07
-1.01697e-08