/*--------------------------------*- C++ -*----------------------------------*\
| =========                 |                                                 |
| \\      /  F ield         | OpenFOAM: The Open Source CFD Toolbox           |
|  \\    /   O peration     | Version:  2406                                  |
|   \\  /    A nd           | Website:  www.openfoam.com                      |
|    \\/     M anipulation  |                                                 |
\*---------------------------------------------------------------------------*/
FoamFile
{
    version     2.0;
    format      ascii;
    arch        "LSB;label=32;scalar=64";
    class       volVectorField;
    location    "4";
    object      U;
}
// * * * * * * * * * * * * * * * * * * * * * * * * * * * * * * * * * * * * * //

dimensions      [0 1 -1 0 0 0 0];

internalField   nonuniform List<vector> 
15000
(
(0.000145463 0.000145465 0.00999964)
(0.000108697 0.000136459 0.00999918)
(7.4678e-05 0.000124628 0.00999863)
(4.39977e-05 0.000117563 0.00999795)
(1.463e-05 0.000113231 0.00999752)
(-1.46288e-05 0.000113229 0.00999752)
(-4.39959e-05 0.000117565 0.00999795)
(-7.46799e-05 0.00012463 0.00999861)
(-0.000108699 0.000136463 0.00999917)
(-0.000145467 0.000145462 0.00999965)
(0.00013647 0.000108697 0.00999918)
(9.65789e-05 9.65869e-05 0.00999782)
(6.64926e-05 8.85619e-05 0.00999629)
(3.88743e-05 8.34048e-05 0.00999484)
(1.27491e-05 8.05745e-05 0.00999408)
(-1.27413e-05 8.05713e-05 0.00999407)
(-3.8867e-05 8.34034e-05 0.00999483)
(-6.64871e-05 8.85555e-05 0.0099963)
(-9.65832e-05 9.65857e-05 0.00999786)
(-0.00013647 0.000108696 0.00999915)
(0.000124634 7.46832e-05 0.00999862)
(8.85597e-05 6.64944e-05 0.0099963)
(6.04783e-05 6.04771e-05 0.0099938)
(3.52543e-05 5.65386e-05 0.00999189)
(1.15135e-05 5.45575e-05 0.00999097)
(-1.15162e-05 5.45609e-05 0.00999096)
(-3.52477e-05 5.65395e-05 0.00999189)
(-6.04826e-05 6.0475e-05 0.0099938)
(-8.85595e-05 6.64857e-05 0.00999629)
(-0.000124634 7.46816e-05 0.00999861)
(0.000117565 4.39947e-05 0.00999795)
(8.34125e-05 3.8871e-05 0.00999486)
(5.65394e-05 3.52529e-05 0.00999191)
(3.27878e-05 3.27839e-05 0.00998991)
(1.06848e-05 3.15747e-05 0.00998904)
(-1.06873e-05 3.15691e-05 0.00998903)
(-3.27868e-05 3.27835e-05 0.00998992)
(-5.65462e-05 3.52426e-05 0.00999188)
(-8.34107e-05 3.88731e-05 0.00999484)
(-0.000117566 4.3997e-05 0.00999797)
(0.000113236 1.46287e-05 0.00999754)
(8.05726e-05 1.27426e-05 0.00999406)
(5.45643e-05 1.15149e-05 0.00999098)
(3.15738e-05 1.06807e-05 0.00998903)
(1.02892e-05 1.02866e-05 0.0099882)
(-1.02907e-05 1.02951e-05 0.0099882)
(-3.1576e-05 1.06828e-05 0.00998903)
(-5.45557e-05 1.15185e-05 0.00999095)
(-8.05748e-05 1.27412e-05 0.00999406)
(-0.000113235 1.46247e-05 0.00999754)
(0.000113225 -1.46342e-05 0.00999753)
(8.05762e-05 -1.27423e-05 0.00999407)
(5.45569e-05 -1.15222e-05 0.00999095)
(3.15763e-05 -1.06838e-05 0.00998902)
(1.02904e-05 -1.02971e-05 0.00998821)
(-1.02911e-05 -1.02976e-05 0.00998821)
(-3.15724e-05 -1.0684e-05 0.00998902)
(-5.45596e-05 -1.15261e-05 0.00999096)
(-8.05756e-05 -1.27519e-05 0.00999408)
(-0.000113236 -1.46308e-05 0.00999755)
(0.00011757 -4.39988e-05 0.00999794)
(8.34125e-05 -3.88791e-05 0.00999483)
(5.65415e-05 -3.52471e-05 0.00999189)
(3.27846e-05 -3.27945e-05 0.00998991)
(1.06887e-05 -3.15821e-05 0.00998902)
(-1.06822e-05 -3.15764e-05 0.00998903)
(-3.27904e-05 -3.27846e-05 0.00998992)
(-5.65388e-05 -3.52501e-05 0.00999189)
(-8.34118e-05 -3.88704e-05 0.00999484)
(-0.000117572 -4.4e-05 0.00999794)
(0.000124632 -7.46779e-05 0.00999861)
(8.85596e-05 -6.64865e-05 0.00999629)
(6.04818e-05 -6.04741e-05 0.00999379)
(3.52463e-05 -5.65458e-05 0.0099919)
(1.15226e-05 -5.45543e-05 0.00999096)
(-1.15211e-05 -5.45603e-05 0.00999098)
(-3.52521e-05 -5.65466e-05 0.00999189)
(-6.04823e-05 -6.04816e-05 0.00999378)
(-8.8558e-05 -6.64957e-05 0.00999633)
(-0.000124634 -7.46807e-05 0.00999862)
(0.000136466 -0.000108701 0.00999917)
(9.65852e-05 -9.65909e-05 0.00999785)
(6.64896e-05 -8.85628e-05 0.00999631)
(3.88684e-05 -8.34078e-05 0.00999483)
(1.27513e-05 -8.05761e-05 0.00999406)
(-1.27458e-05 -8.05793e-05 0.00999407)
(-3.88716e-05 -8.3412e-05 0.00999484)
(-6.64905e-05 -8.85611e-05 0.0099963)
(-9.65813e-05 -9.65963e-05 0.00999782)
(-0.000136466 -0.000108702 0.00999917)
(0.000145463 -0.000145458 0.00999963)
(0.000108691 -0.000136468 0.00999916)
(7.46778e-05 -0.000124638 0.00999859)
(4.40032e-05 -0.000117573 0.00999798)
(1.46232e-05 -0.000113231 0.00999752)
(-1.46248e-05 -0.000113232 0.00999753)
(-4.39988e-05 -0.000117566 0.00999796)
(-7.46779e-05 -0.000124637 0.00999862)
(-0.000108697 -0.000136469 0.00999916)
(-0.000145463 -0.000145462 0.0099996)
(0.000198867 0.00019886 0.010321)
(0.000144084 0.00017021 0.0102904)
(9.9918e-05 0.000166803 0.0102681)
(5.93941e-05 0.000160624 0.0102542)
(1.96325e-05 0.000158004 0.010247)
(-1.96299e-05 0.000158004 0.010247)
(-5.93907e-05 0.000160625 0.0102542)
(-9.99198e-05 0.000166808 0.0102681)
(-0.000144079 0.000170209 0.0102903)
(-0.000198858 0.000198866 0.010321)
(0.000170198 0.000144082 0.0102904)
(0.00013097 0.000130962 0.0102598)
(9.53858e-05 0.000126352 0.0102387)
(5.69261e-05 0.000122616 0.0102255)
(1.90617e-05 0.000121015 0.010219)
(-1.90572e-05 0.000121023 0.010219)
(-5.69304e-05 0.000122618 0.0102255)
(-9.5383e-05 0.000126353 0.0102387)
(-0.000130965 0.000130965 0.0102598)
(-0.000170198 0.000144078 0.0102904)
(0.000166802 9.99171e-05 0.0102681)
(0.000126354 9.53855e-05 0.0102387)
(9.09481e-05 9.09502e-05 0.010219)
(5.41239e-05 8.78833e-05 0.0102065)
(1.80742e-05 8.62693e-05 0.0102004)
(-1.8068e-05 8.62684e-05 0.0102004)
(-5.41227e-05 8.7887e-05 0.0102065)
(-9.09431e-05 9.09538e-05 0.010219)
(-0.000126349 9.53879e-05 0.0102387)
(-0.000166807 9.99195e-05 0.0102681)
(0.000160628 5.93949e-05 0.0102542)
(0.000122611 5.69208e-05 0.0102255)
(8.78909e-05 5.41263e-05 0.0102064)
(5.23016e-05 5.23132e-05 0.0101943)
(1.74364e-05 5.1352e-05 0.0101883)
(-1.74311e-05 5.13467e-05 0.0101883)
(-5.23044e-05 5.23077e-05 0.0101942)
(-8.78844e-05 5.41332e-05 0.0102065)
(-0.00012261 5.69252e-05 0.0102255)
(-0.00016063 5.93941e-05 0.0102542)
(0.000158002 1.96332e-05 0.010247)
(0.000121018 1.90663e-05 0.0102191)
(8.62682e-05 1.80704e-05 0.0102004)
(5.13389e-05 1.74304e-05 0.0101884)
(1.71052e-05 1.70973e-05 0.0101825)
(-1.7091e-05 1.70991e-05 0.0101825)
(-5.13494e-05 1.74411e-05 0.0101883)
(-8.62593e-05 1.80671e-05 0.0102004)
(-0.000121022 1.90691e-05 0.0102191)
(-0.000157999 1.96361e-05 0.010247)
(0.000157998 -1.9628e-05 0.010247)
(0.000121028 -1.90517e-05 0.0102191)
(8.62628e-05 -1.80608e-05 0.0102004)
(5.13512e-05 -1.7432e-05 0.0101884)
(1.70928e-05 -1.70934e-05 0.0101825)
(-1.70906e-05 -1.70856e-05 0.0101825)
(-5.13525e-05 -1.74346e-05 0.0101884)
(-8.62604e-05 -1.80595e-05 0.0102004)
(-0.00012102 -1.90571e-05 0.0102191)
(-0.000157995 -1.96308e-05 0.010247)
(0.000160626 -5.93911e-05 0.0102542)
(0.000122607 -5.69245e-05 0.0102255)
(8.78879e-05 -5.41296e-05 0.0102065)
(5.23133e-05 -5.2311e-05 0.0101943)
(1.74328e-05 -5.1353e-05 0.0101884)
(-1.7435e-05 -5.13496e-05 0.0101883)
(-5.23023e-05 -5.23115e-05 0.0101942)
(-8.7883e-05 -5.41284e-05 0.0102065)
(-0.000122614 -5.69241e-05 0.0102255)
(-0.000160623 -5.93936e-05 0.0102542)
(0.000166803 -9.99153e-05 0.0102681)
(0.000126343 -9.53866e-05 0.0102387)
(9.09506e-05 -9.095e-05 0.010219)
(5.41249e-05 -8.78849e-05 0.0102065)
(1.8067e-05 -8.62574e-05 0.0102004)
(-1.80637e-05 -8.62584e-05 0.0102004)
(-5.41165e-05 -8.78797e-05 0.0102065)
(-9.09533e-05 -9.0947e-05 0.010219)
(-0.00012634 -9.53862e-05 0.0102387)
(-0.0001668 -9.9914e-05 0.0102681)
(0.000170201 -0.000144077 0.0102904)
(0.00013097 -0.000130962 0.0102598)
(9.53775e-05 -0.000126352 0.0102387)
(5.69323e-05 -0.000122609 0.0102255)
(1.90647e-05 -0.000121021 0.0102191)
(-1.90606e-05 -0.000121019 0.0102191)
(-5.69251e-05 -0.000122614 0.0102255)
(-9.53777e-05 -0.000126356 0.0102387)
(-0.000130966 -0.000130957 0.0102598)
(-0.000170193 -0.000144076 0.0102904)
(0.000198856 -0.000198865 0.010321)
(0.000144087 -0.000170205 0.0102904)
(9.99184e-05 -0.000166798 0.0102681)
(5.93863e-05 -0.000160614 0.0102542)
(1.96386e-05 -0.000157999 0.010247)
(-1.96353e-05 -0.000158 0.010247)
(-5.93879e-05 -0.000160621 0.0102542)
(-9.99135e-05 -0.000166794 0.0102681)
(-0.000144078 -0.000170197 0.0102904)
(-0.00019886 -0.000198861 0.010321)
(0.000221905 0.000221907 0.0105613)
(0.000165724 0.000192235 0.0105224)
(0.000115994 0.000193244 0.0104934)
(6.95952e-05 0.000186685 0.0104746)
(2.26976e-05 0.000185216 0.0104647)
(-2.27071e-05 0.000185211 0.0104647)
(-6.959e-05 0.000186679 0.0104746)
(-0.000115992 0.000193244 0.0104934)
(-0.000165718 0.000192233 0.0105224)
(-0.000221905 0.000221903 0.0105613)
(0.000192233 0.000165724 0.0105224)
(0.000152843 0.000152838 0.0104834)
(0.000111273 0.000149375 0.0104525)
(6.72392e-05 0.000145414 0.0104323)
(2.251e-05 0.000144251 0.010422)
(-2.25133e-05 0.000144246 0.0104221)
(-6.72393e-05 0.000145414 0.0104323)
(-0.000111271 0.000149378 0.0104525)
(-0.000152837 0.000152831 0.0104834)
(-0.00019224 0.000165724 0.0105224)
(0.000193238 0.000115989 0.0104934)
(0.000149382 0.000111273 0.0104525)
(0.000108194 0.000108195 0.0104214)
(6.48031e-05 0.000105253 0.0104009)
(2.1697e-05 0.000103879 0.0103908)
(-2.17029e-05 0.00010389 0.0103908)
(-6.48049e-05 0.00010526 0.0104009)
(-0.000108193 0.000108187 0.0104214)
(-0.000149378 0.000111274 0.0104525)
(-0.000193243 0.000115992 0.0104934)
(0.000186671 6.95918e-05 0.0104746)
(0.000145422 6.72255e-05 0.0104323)
(0.000105259 6.47957e-05 0.010401)
(6.31123e-05 6.31049e-05 0.0103805)
(2.1175e-05 6.2276e-05 0.0103706)
(-2.11782e-05 6.22766e-05 0.0103706)
(-6.31081e-05 6.31064e-05 0.0103805)
(-0.000105259 6.47981e-05 0.0104009)
(-0.000145422 6.72352e-05 0.0104323)
(-0.000186674 6.95898e-05 0.0104746)
(0.000185222 2.27002e-05 0.0104647)
(0.000144252 2.25105e-05 0.010422)
(0.000103888 2.17089e-05 0.0103908)
(6.22796e-05 2.11782e-05 0.0103706)
(2.08583e-05 2.08542e-05 0.0103609)
(-2.08574e-05 2.08564e-05 0.0103609)
(-6.2282e-05 2.11732e-05 0.0103706)
(-0.000103881 2.17135e-05 0.0103908)
(-0.000144254 2.25058e-05 0.0104221)
(-0.000185214 2.26957e-05 0.0104647)
(0.000185209 -2.2705e-05 0.0104647)
(0.000144259 -2.25131e-05 0.010422)
(0.000103883 -2.1718e-05 0.0103908)
(6.22769e-05 -2.11794e-05 0.0103706)
(2.0856e-05 -2.08632e-05 0.0103609)
(-2.0859e-05 -2.0861e-05 0.0103609)
(-6.22843e-05 -2.11768e-05 0.0103706)
(-0.000103876 -2.17166e-05 0.0103908)
(-0.000144259 -2.25165e-05 0.0104221)
(-0.000185214 -2.27094e-05 0.0104647)
(0.000186686 -6.95963e-05 0.0104746)
(0.000145412 -6.72384e-05 0.0104323)
(0.000105256 -6.48009e-05 0.0104009)
(6.31123e-05 -6.31162e-05 0.0103805)
(2.11781e-05 -6.22846e-05 0.0103706)
(-2.11808e-05 -6.22837e-05 0.0103706)
(-6.31054e-05 -6.31128e-05 0.0103805)
(-0.000105259 -6.4808e-05 0.0104009)
(-0.000145413 -6.72351e-05 0.0104323)
(-0.000186685 -6.95945e-05 0.0104746)
(0.000193239 -0.000115995 0.0104934)
(0.00014938 -0.000111276 0.0104525)
(0.000108197 -0.000108202 0.0104214)
(6.48009e-05 -0.000105265 0.0104009)
(2.17148e-05 -0.000103886 0.0103908)
(-2.17133e-05 -0.000103886 0.0103908)
(-6.48045e-05 -0.000105261 0.0104009)
(-0.000108194 -0.000108194 0.0104214)
(-0.00014938 -0.000111279 0.0104525)
(-0.000193237 -0.000115995 0.0104934)
(0.000192239 -0.000165733 0.0105224)
(0.000152836 -0.000152841 0.0104834)
(0.000111276 -0.000149379 0.0104525)
(6.72376e-05 -0.000145418 0.0104323)
(2.25113e-05 -0.000144257 0.0104221)
(-2.25065e-05 -0.000144256 0.0104221)
(-6.72369e-05 -0.000145417 0.0104323)
(-0.000111273 -0.000149384 0.0104525)
(-0.00015284 -0.000152841 0.0104834)
(-0.000192235 -0.000165729 0.0105224)
(0.000221912 -0.000221908 0.0105613)
(0.000165717 -0.00019224 0.0105224)
(0.000115997 -0.000193249 0.0104934)
(6.95892e-05 -0.000186685 0.0104746)
(2.26998e-05 -0.000185222 0.0104647)
(-2.26922e-05 -0.000185215 0.0104647)
(-6.95909e-05 -0.000186685 0.0104746)
(-0.000115995 -0.000193248 0.0104934)
(-0.000165716 -0.000192241 0.0105224)
(-0.000221916 -0.00022191 0.0105613)
(0.000217501 0.000217492 0.0108081)
(0.000166111 0.000194279 0.010763)
(0.000116958 0.000198728 0.0107309)
(7.06963e-05 0.00019384 0.0107103)
(2.27598e-05 0.000193865 0.0106997)
(-2.27603e-05 0.000193873 0.0106997)
(-7.06931e-05 0.000193841 0.0107103)
(-0.000116959 0.000198729 0.0107309)
(-0.000166109 0.000194274 0.010763)
(-0.000217491 0.000217502 0.0108081)
(0.000194266 0.000166115 0.0107631)
(0.0001559 0.000155892 0.0107207)
(0.000112969 0.000154753 0.0106889)
(6.88796e-05 0.000151733 0.0106685)
(2.28577e-05 0.000151381 0.0106581)
(-2.28567e-05 0.000151379 0.0106581)
(-6.88723e-05 0.000151736 0.0106685)
(-0.000112964 0.000154757 0.0106889)
(-0.0001559 0.000155898 0.0107207)
(-0.000194265 0.000166121 0.010763)
(0.000198732 0.000116948 0.0107309)
(0.000154753 0.000112968 0.0106889)
(0.000112361 0.000112362 0.0106582)
(6.75491e-05 0.000110264 0.0106382)
(2.26099e-05 0.000109642 0.0106282)
(-2.25997e-05 0.000109636 0.0106282)
(-6.75454e-05 0.000110264 0.0106382)
(-0.000112359 0.000112359 0.0106582)
(-0.000154754 0.000112971 0.0106889)
(-0.000198735 0.000116951 0.0107309)
(0.000193843 7.07003e-05 0.0107103)
(0.000151737 6.88734e-05 0.0106685)
(0.000110258 6.75511e-05 0.0106382)
(6.63663e-05 6.63582e-05 0.0106183)
(2.23011e-05 6.5889e-05 0.0106083)
(-2.22976e-05 6.59e-05 0.0106083)
(-6.63629e-05 6.63626e-05 0.0106183)
(-0.000110258 6.75499e-05 0.0106382)
(-0.000151732 6.88729e-05 0.0106685)
(-0.000193842 7.07007e-05 0.0107103)
(0.000193876 2.27556e-05 0.0106997)
(0.000151379 2.28603e-05 0.0106581)
(0.000109632 2.26006e-05 0.0106282)
(6.58948e-05 2.22973e-05 0.0106083)
(2.21341e-05 2.21336e-05 0.0105983)
(-2.21293e-05 2.21349e-05 0.0105983)
(-6.58934e-05 2.2297e-05 0.0106082)
(-0.000109637 2.26064e-05 0.0106282)
(-0.000151381 2.28573e-05 0.0106581)
(-0.000193868 2.27544e-05 0.0106997)
(0.000193869 -2.27551e-05 0.0106997)
(0.000151387 -2.2849e-05 0.0106581)
(0.000109639 -2.25964e-05 0.0106282)
(6.58984e-05 -2.22911e-05 0.0106083)
(2.21272e-05 -2.21311e-05 0.0105983)
(-2.21359e-05 -2.21226e-05 0.0105983)
(-6.58966e-05 -2.22864e-05 0.0106083)
(-0.000109636 -2.25965e-05 0.0106282)
(-0.000151379 -2.28486e-05 0.0106581)
(-0.000193866 -2.27482e-05 0.0106997)
(0.00019384 -7.06993e-05 0.0107103)
(0.000151742 -6.88707e-05 0.0106685)
(0.000110258 -6.75462e-05 0.0106382)
(6.63615e-05 -6.63539e-05 0.0106183)
(2.22997e-05 -6.58976e-05 0.0106083)
(-2.22994e-05 -6.589e-05 0.0106083)
(-6.63578e-05 -6.63581e-05 0.0106183)
(-0.000110259 -6.75453e-05 0.0106382)
(-0.000151739 -6.88663e-05 0.0106685)
(-0.000193841 -7.06995e-05 0.0107103)
(0.000198737 -0.000116947 0.0107309)
(0.000154745 -0.000112969 0.0106889)
(0.000112365 -0.000112354 0.0106582)
(6.75521e-05 -0.000110261 0.0106382)
(2.26005e-05 -0.000109632 0.0106282)
(-2.25984e-05 -0.000109631 0.0106282)
(-6.75403e-05 -0.000110259 0.0106382)
(-0.000112363 -0.000112355 0.0106582)
(-0.000154748 -0.000112962 0.0106889)
(-0.000198737 -0.00011694 0.0107309)
(0.00019427 -0.000166117 0.010763)
(0.000155901 -0.000155892 0.0107207)
(0.000112969 -0.000154751 0.0106889)
(6.88804e-05 -0.000151732 0.0106685)
(2.28571e-05 -0.000151375 0.0106581)
(-2.28475e-05 -0.000151383 0.0106581)
(-6.88779e-05 -0.000151734 0.0106685)
(-0.000112969 -0.000154753 0.0106889)
(-0.0001559 -0.00015589 0.0107207)
(-0.000194269 -0.00016611 0.0107631)
(0.000217494 -0.000217493 0.0108081)
(0.000166124 -0.000194272 0.010763)
(0.000116955 -0.000198726 0.0107309)
(7.06967e-05 -0.000193841 0.0107103)
(2.27578e-05 -0.000193872 0.0106997)
(-2.27514e-05 -0.000193861 0.0106997)
(-7.06952e-05 -0.000193842 0.0107103)
(-0.000116952 -0.000198728 0.0107309)
(-0.000166122 -0.000194267 0.010763)
(-0.000217496 -0.000217494 0.0108081)
(0.000195946 0.000195943 0.0110486)
(0.000152505 0.000182531 0.010999)
(0.000108008 0.000189199 0.0109623)
(6.56185e-05 0.000186964 0.0109375)
(2.09029e-05 0.000188241 0.010925)
(-2.08989e-05 0.000188244 0.010925)
(-6.56184e-05 0.000186961 0.0109375)
(-0.000108011 0.000189198 0.0109623)
(-0.000152506 0.000182527 0.010999)
(-0.000195935 0.000195944 0.0110486)
(0.000182535 0.000152507 0.010999)
(0.000146299 0.000146285 0.0109494)
(0.000105268 0.000147506 0.0109111)
(6.44579e-05 0.000145887 0.0108854)
(2.11475e-05 0.000146326 0.0108723)
(-2.11472e-05 0.000146323 0.0108723)
(-6.44581e-05 0.00014589 0.0108854)
(-0.00010527 0.000147519 0.0109111)
(-0.000146298 0.000146289 0.0109494)
(-0.000182525 0.000152499 0.010999)
(0.000189205 0.000108007 0.0109623)
(0.000147521 0.000105272 0.0109111)
(0.000106981 0.000106985 0.0108721)
(6.4369e-05 0.000105943 0.0108462)
(2.14603e-05 0.000106106 0.0108332)
(-2.14656e-05 0.0001061 0.0108332)
(-6.43753e-05 0.000105941 0.0108462)
(-0.000106979 0.00010697 0.0108721)
(-0.000147517 0.000105269 0.0109111)
(-0.000189203 0.000108006 0.0109623)
(0.000186959 6.56149e-05 0.0109375)
(0.000145903 6.44504e-05 0.0108854)
(0.000105939 6.43709e-05 0.0108462)
(6.37781e-05 6.37709e-05 0.0108203)
(2.14042e-05 6.37166e-05 0.0108075)
(-2.14e-05 6.37096e-05 0.0108075)
(-6.37806e-05 6.37628e-05 0.0108203)
(-0.000105946 6.43701e-05 0.0108462)
(-0.0001459 6.44548e-05 0.0108854)
(-0.000186958 6.56099e-05 0.0109375)
(0.000188247 2.09044e-05 0.010925)
(0.000146321 2.11457e-05 0.0108724)
(0.0001061 2.14604e-05 0.0108332)
(6.37245e-05 2.14072e-05 0.0108075)
(2.14097e-05 2.1398e-05 0.0107949)
(-2.14081e-05 2.14012e-05 0.0107949)
(-6.37131e-05 2.14158e-05 0.0108075)
(-0.000106116 2.14584e-05 0.0108332)
(-0.000146322 2.11388e-05 0.0108723)
(-0.000188242 2.08981e-05 0.010925)
(0.000188241 -2.09104e-05 0.010925)
(0.000146329 -2.11494e-05 0.0108723)
(0.000106105 -2.14599e-05 0.0108332)
(6.37152e-05 -2.14152e-05 0.0108075)
(2.14025e-05 -2.14048e-05 0.0107949)
(-2.14098e-05 -2.14102e-05 0.0107949)
(-6.37258e-05 -2.14265e-05 0.0108075)
(-0.000106104 -2.14594e-05 0.0108332)
(-0.000146319 -2.11488e-05 0.0108723)
(-0.000188245 -2.09067e-05 0.010925)
(0.000186961 -6.56179e-05 0.0109375)
(0.000145889 -6.44542e-05 0.0108854)
(0.000105943 -6.43728e-05 0.0108462)
(6.37724e-05 -6.37716e-05 0.0108203)
(2.14063e-05 -6.3727e-05 0.0108075)
(-2.14037e-05 -6.37174e-05 0.0108075)
(-6.37759e-05 -6.37728e-05 0.0108203)
(-0.000105939 -6.43741e-05 0.0108462)
(-0.000145893 -6.44581e-05 0.0108854)
(-0.000186964 -6.56174e-05 0.0109375)
(0.000189204 -0.00010801 0.0109623)
(0.000147513 -0.000105271 0.0109111)
(0.000106988 -0.000106992 0.0108721)
(6.43647e-05 -0.000105951 0.0108462)
(2.14631e-05 -0.000106108 0.0108332)
(-2.14722e-05 -0.000106105 0.0108332)
(-6.43636e-05 -0.000105947 0.0108462)
(-0.000106987 -0.000106982 0.0108721)
(-0.000147517 -0.000105274 0.0109111)
(-0.000189203 -0.000108012 0.0109623)
(0.000182524 -0.000152502 0.010999)
(0.000146297 -0.000146297 0.0109494)
(0.00010527 -0.000147518 0.0109111)
(6.445e-05 -0.00014589 0.0108854)
(2.11463e-05 -0.00014632 0.0108723)
(-2.11462e-05 -0.000146324 0.0108723)
(-6.44567e-05 -0.0001459 0.0108854)
(-0.000105269 -0.000147526 0.0109111)
(-0.000146302 -0.000146299 0.0109494)
(-0.000182525 -0.000152507 0.010999)
(0.000195949 -0.000195941 0.0110486)
(0.000152494 -0.000182535 0.010999)
(0.000108014 -0.0001892 0.0109623)
(6.56118e-05 -0.00018697 0.0109375)
(2.09107e-05 -0.000188248 0.010925)
(-2.09135e-05 -0.000188244 0.010925)
(-6.56117e-05 -0.000186965 0.0109375)
(-0.000108016 -0.000189199 0.0109623)
(-0.000152497 -0.000182535 0.010999)
(-0.000195943 -0.000195948 0.0110486)
(0.000169217 0.000169221 0.0112587)
(0.00013355 0.000165429 0.0112116)
(9.51638e-05 0.000173347 0.0111764)
(5.79273e-05 0.000173962 0.0111526)
(1.83731e-05 0.000176193 0.0111409)
(-1.83702e-05 0.000176198 0.0111409)
(-5.79184e-05 0.000173964 0.0111526)
(-9.517e-05 0.000173346 0.0111764)
(-0.000133541 0.00016543 0.0112116)
(-0.000169223 0.000169231 0.0112587)
(0.000165425 0.000133547 0.0112116)
(0.000131601 0.000131595 0.0111637)
(9.40761e-05 0.000134928 0.0111284)
(5.76258e-05 0.00013497 0.0111051)
(1.87135e-05 0.000136105 0.0110934)
(-1.87145e-05 0.000136096 0.0110934)
(-5.76234e-05 0.000134975 0.0111051)
(-9.40731e-05 0.000134925 0.0111285)
(-0.000131602 0.000131593 0.0111637)
(-0.000165423 0.000133536 0.0112116)
(0.000173348 9.51669e-05 0.0111764)
(0.000134935 9.40758e-05 0.0111285)
(9.76938e-05 9.77014e-05 0.0110935)
(5.87542e-05 9.78616e-05 0.0110703)
(1.95378e-05 9.87421e-05 0.0110587)
(-1.95409e-05 9.874e-05 0.0110587)
(-5.87565e-05 9.7848e-05 0.0110703)
(-9.76933e-05 9.76987e-05 0.0110935)
(-0.000134927 9.40732e-05 0.0111285)
(-0.000173344 9.5161e-05 0.0111764)
(0.000173963 5.7931e-05 0.0111526)
(0.000134979 5.76219e-05 0.0111051)
(9.78432e-05 5.87574e-05 0.0110703)
(5.88278e-05 5.88208e-05 0.0110472)
(1.97004e-05 5.91563e-05 0.0110355)
(-1.96961e-05 5.91634e-05 0.0110355)
(-5.88212e-05 5.88128e-05 0.0110472)
(-9.78514e-05 5.87596e-05 0.0110703)
(-0.000134977 5.76216e-05 0.0111051)
(-0.000173964 5.79321e-05 0.0111526)
(0.000176198 1.83678e-05 0.0111409)
(0.000136093 1.87168e-05 0.0110934)
(9.87479e-05 1.95361e-05 0.0110587)
(5.91583e-05 1.96907e-05 0.0110355)
(1.98779e-05 1.9869e-05 0.0110239)
(-1.98723e-05 1.98753e-05 0.0110239)
(-5.91644e-05 1.96957e-05 0.0110355)
(-9.87467e-05 1.95372e-05 0.0110587)
(-0.000136099 1.8717e-05 0.0110934)
(-0.000176193 1.83687e-05 0.0111409)
(0.00017619 -1.83686e-05 0.0111409)
(0.000136103 -1.87122e-05 0.0110934)
(9.87405e-05 -1.95367e-05 0.0110587)
(5.91588e-05 -1.9697e-05 0.0110355)
(1.98715e-05 -1.98788e-05 0.0110239)
(-1.98832e-05 -1.98683e-05 0.0110239)
(-5.91527e-05 -1.96909e-05 0.0110355)
(-9.8754e-05 -1.95371e-05 0.0110587)
(-0.000136097 -1.87127e-05 0.0110934)
(-0.000176195 -1.83699e-05 0.0111409)
(0.000173963 -5.79346e-05 0.0111526)
(0.000134974 -5.7619e-05 0.0111051)
(9.7847e-05 -5.87584e-05 0.0110703)
(5.88238e-05 -5.88208e-05 0.0110472)
(1.97031e-05 -5.91709e-05 0.0110355)
(-1.97027e-05 -5.916e-05 0.0110355)
(-5.88241e-05 -5.88163e-05 0.0110472)
(-9.78476e-05 -5.87569e-05 0.0110703)
(-0.000134968 -5.76203e-05 0.0111051)
(-0.00017396 -5.79319e-05 0.0111526)
(0.000173346 -9.51574e-05 0.0111764)
(0.000134918 -9.40711e-05 0.0111285)
(9.77003e-05 -9.76964e-05 0.0110935)
(5.87582e-05 -9.78573e-05 0.0110703)
(1.95356e-05 -9.8736e-05 0.0110587)
(-1.95451e-05 -9.87332e-05 0.0110587)
(-5.8752e-05 -9.78508e-05 0.0110703)
(-9.77051e-05 -9.76987e-05 0.0110935)
(-0.000134915 -9.407e-05 0.0111285)
(-0.000173348 -9.51611e-05 0.0111764)
(0.000165426 -0.000133534 0.0112116)
(0.000131603 -0.000131596 0.0111637)
(9.40686e-05 -0.000134925 0.0111285)
(5.7624e-05 -0.000134962 0.0111051)
(1.87128e-05 -0.000136092 0.0110934)
(-1.87094e-05 -0.000136099 0.0110934)
(-5.76278e-05 -0.000134969 0.0111051)
(-9.4072e-05 -0.000134922 0.0111285)
(-0.000131601 -0.000131594 0.0111637)
(-0.000165428 -0.000133532 0.0112116)
(0.000169219 -0.000169222 0.0112587)
(0.000133545 -0.000165428 0.0112116)
(9.51641e-05 -0.000173345 0.0111764)
(5.79197e-05 -0.000173961 0.0111526)
(1.83771e-05 -0.000176195 0.0111409)
(-1.838e-05 -0.000176185 0.0111409)
(-5.79256e-05 -0.000173959 0.0111526)
(-9.51647e-05 -0.000173343 0.0111764)
(-0.000133544 -0.00016543 0.0112116)
(-0.00016923 -0.000169221 0.0112587)
(0.000144366 0.000144379 0.0114411)
(0.000114888 0.000147288 0.0113976)
(8.23612e-05 0.000155362 0.0113613)
(5.00624e-05 0.000158096 0.0113358)
(1.59167e-05 0.000160795 0.0113231)
(-1.59123e-05 0.000160801 0.0113231)
(-5.0061e-05 0.000158094 0.0113357)
(-8.23615e-05 0.000155358 0.0113613)
(-0.000114884 0.000147284 0.0113976)
(-0.000144378 0.000144375 0.0114411)
(0.000147281 0.000114889 0.0113976)
(0.000115875 0.000115875 0.0113469)
(8.24459e-05 0.000120371 0.0113081)
(5.03114e-05 0.000121641 0.0112815)
(1.62332e-05 0.000123176 0.0112682)
(-1.6241e-05 0.000123174 0.0112682)
(-5.03087e-05 0.00012165 0.0112815)
(-8.2444e-05 0.000120373 0.0113081)
(-0.000115878 0.000115877 0.0113469)
(-0.000147286 0.000114885 0.0113976)
(0.000155355 8.23664e-05 0.0113613)
(0.00012038 8.24517e-05 0.0113081)
(8.70233e-05 8.70273e-05 0.0112678)
(5.22075e-05 8.80462e-05 0.0112408)
(1.73369e-05 8.9374e-05 0.0112274)
(-1.73384e-05 8.93712e-05 0.0112274)
(-5.22105e-05 8.80432e-05 0.0112408)
(-8.70185e-05 8.70253e-05 0.0112678)
(-0.000120379 8.24483e-05 0.0113081)
(-0.000155359 8.23654e-05 0.0113613)
(0.000158084 5.00536e-05 0.0113357)
(0.000121655 5.03088e-05 0.0112815)
(8.80366e-05 5.22103e-05 0.0112408)
(5.27561e-05 5.27492e-05 0.0112138)
(1.76446e-05 5.33449e-05 0.0112005)
(-1.76378e-05 5.33497e-05 0.0112005)
(-5.27539e-05 5.27458e-05 0.0112138)
(-8.80415e-05 5.22084e-05 0.0112408)
(-0.000121659 5.03086e-05 0.0112815)
(-0.000158084 5.00538e-05 0.0113357)
(0.000160796 1.59093e-05 0.0113231)
(0.000123173 1.62359e-05 0.0112682)
(8.93767e-05 1.73458e-05 0.0112274)
(5.33536e-05 1.76442e-05 0.0112005)
(1.79325e-05 1.79343e-05 0.0111872)
(-1.79331e-05 1.79398e-05 0.0111873)
(-5.33508e-05 1.7647e-05 0.0112005)
(-8.93746e-05 1.7345e-05 0.0112274)
(-0.000123176 1.62306e-05 0.0112682)
(-0.000160794 1.59064e-05 0.0113231)
(0.000160794 -1.59182e-05 0.0113231)
(0.000123179 -1.62391e-05 0.0112682)
(8.93685e-05 -1.73418e-05 0.0112274)
(5.33487e-05 -1.76431e-05 0.0112005)
(1.79315e-05 -1.79397e-05 0.0111873)
(-1.79335e-05 -1.79332e-05 0.0111873)
(-5.33553e-05 -1.76433e-05 0.0112005)
(-8.93771e-05 -1.73369e-05 0.0112274)
(-0.000123174 -1.62401e-05 0.0112682)
(-0.000160801 -1.5916e-05 0.0113231)
(0.000158095 -5.00613e-05 0.0113357)
(0.000121641 -5.03014e-05 0.0112815)
(8.80429e-05 -5.22067e-05 0.0112408)
(5.27631e-05 -5.27467e-05 0.0112138)
(1.76481e-05 -5.33581e-05 0.0112005)
(-1.76468e-05 -5.33535e-05 0.0112005)
(-5.27553e-05 -5.27404e-05 0.0112138)
(-8.80457e-05 -5.22133e-05 0.0112408)
(-0.000121643 -5.03089e-05 0.0112815)
(-0.000158097 -5.00633e-05 0.0113357)
(0.000155362 -8.23621e-05 0.0113613)
(0.000120375 -8.24533e-05 0.0113081)
(8.70362e-05 -8.70335e-05 0.0112678)
(5.22077e-05 -8.80539e-05 0.0112408)
(1.73471e-05 -8.93655e-05 0.0112274)
(-1.73538e-05 -8.93674e-05 0.0112274)
(-5.22087e-05 -8.80473e-05 0.0112408)
(-8.70289e-05 -8.70288e-05 0.0112678)
(-0.000120374 -8.24482e-05 0.0113081)
(-0.000155362 -8.23691e-05 0.0113613)
(0.000147288 -0.000114884 0.0113976)
(0.000115876 -0.00011588 0.0113469)
(8.24491e-05 -0.000120377 0.0113081)
(5.03055e-05 -0.000121648 0.0112815)
(1.62383e-05 -0.000123174 0.0112682)
(-1.62363e-05 -0.000123182 0.0112682)
(-5.03118e-05 -0.00012165 0.0112815)
(-8.24546e-05 -0.000120378 0.0113081)
(-0.000115879 -0.000115877 0.0113469)
(-0.000147286 -0.000114883 0.0113976)
(0.000144379 -0.000144376 0.0114411)
(0.000114885 -0.00014729 0.0113976)
(8.23703e-05 -0.000155356 0.0113613)
(5.00411e-05 -0.000158093 0.0113357)
(1.59218e-05 -0.000160796 0.0113231)
(-1.59184e-05 -0.000160789 0.0113231)
(-5.00486e-05 -0.000158094 0.0113358)
(-8.23695e-05 -0.000155363 0.0113613)
(-0.000114887 -0.000147288 0.0113976)
(-0.00014438 -0.000144375 0.0114411)
(0.0001239 0.000123882 0.0115981)
(9.89861e-05 0.000130537 0.0115634)
(7.14117e-05 0.000138141 0.0115312)
(4.32082e-05 0.000142074 0.0115082)
(1.38537e-05 0.000144919 0.0114969)
(-1.38472e-05 0.000144926 0.0114969)
(-4.32042e-05 0.000142068 0.0115082)
(-7.14116e-05 0.000138141 0.0115312)
(-9.89834e-05 0.000130538 0.0115634)
(-0.000123887 0.000123898 0.0115981)
(0.000130538 9.8984e-05 0.0115634)
(0.000101626 0.000101611 0.0115178)
(7.22281e-05 0.000106537 0.0114834)
(4.37885e-05 0.000108539 0.0114602)
(1.41193e-05 0.000110232 0.0114488)
(-1.41243e-05 0.000110221 0.0114488)
(-4.37789e-05 0.000108544 0.0114602)
(-7.2223e-05 0.00010654 0.0114834)
(-0.000101623 0.000101621 0.0115178)
(-0.000130529 9.89868e-05 0.0115634)
(0.000138148 7.14004e-05 0.0115311)
(0.000106548 7.22216e-05 0.0114834)
(7.7066e-05 7.70622e-05 0.0114485)
(4.6077e-05 7.85995e-05 0.0114252)
(1.53349e-05 8.00999e-05 0.0114137)
(-1.5332e-05 8.00975e-05 0.0114137)
(-4.60743e-05 7.85906e-05 0.0114252)
(-7.7057e-05 7.70621e-05 0.0114485)
(-0.000106538 7.22276e-05 0.0114834)
(-0.000138142 7.14025e-05 0.0115312)
(0.000142079 4.32152e-05 0.0115082)
(0.000108544 4.37873e-05 0.0114602)
(7.85918e-05 4.60802e-05 0.0114252)
(4.69169e-05 4.69086e-05 0.0114018)
(1.57012e-05 4.76271e-05 0.0113902)
(-1.56878e-05 4.76302e-05 0.0113902)
(-4.69122e-05 4.68962e-05 0.0114018)
(-7.85898e-05 4.6073e-05 0.0114252)
(-0.000108539 4.37847e-05 0.0114602)
(-0.000142076 4.32159e-05 0.0115082)
(0.000144931 1.38463e-05 0.0114969)
(0.000110221 1.41312e-05 0.0114488)
(8.01063e-05 1.53287e-05 0.0114137)
(4.76293e-05 1.56995e-05 0.0113902)
(1.60515e-05 1.60385e-05 0.0113784)
(-1.6042e-05 1.60542e-05 0.0113784)
(-4.76236e-05 1.57043e-05 0.0113902)
(-8.0114e-05 1.53326e-05 0.0114137)
(-0.000110227 1.41298e-05 0.0114488)
(-0.000144925 1.38403e-05 0.0114969)
(0.000144928 -1.38446e-05 0.0114969)
(0.000110226 -1.41243e-05 0.0114488)
(8.01026e-05 -1.53248e-05 0.0114137)
(4.76268e-05 -1.57073e-05 0.0113902)
(1.60463e-05 -1.60539e-05 0.0113784)
(-1.60571e-05 -1.60433e-05 0.0113784)
(-4.76212e-05 -1.5704e-05 0.0113902)
(-8.01131e-05 -1.5331e-05 0.0114137)
(-0.000110215 -1.41378e-05 0.0114488)
(-0.000144928 -1.38502e-05 0.0114969)
(0.000142074 -4.32121e-05 0.0115082)
(0.000108537 -4.37822e-05 0.0114602)
(7.85923e-05 -4.60763e-05 0.0114252)
(4.69102e-05 -4.69014e-05 0.0114019)
(1.56976e-05 -4.76289e-05 0.0113902)
(-1.57001e-05 -4.76228e-05 0.0113902)
(-4.69039e-05 -4.69022e-05 0.0114018)
(-7.85925e-05 -4.6074e-05 0.0114252)
(-0.000108531 -4.37823e-05 0.0114602)
(-0.000142069 -4.32128e-05 0.0115082)
(0.000138144 -7.13939e-05 0.0115311)
(0.000106531 -7.22214e-05 0.0114834)
(7.7062e-05 -7.70662e-05 0.0114485)
(4.60779e-05 -7.86058e-05 0.0114252)
(1.53267e-05 -8.01093e-05 0.0114137)
(-1.53336e-05 -8.01067e-05 0.0114137)
(-4.60693e-05 -7.85914e-05 0.0114252)
(-7.7062e-05 -7.70654e-05 0.0114485)
(-0.00010653 -7.22267e-05 0.0114834)
(-0.000138146 -7.14008e-05 0.0115311)
(0.000130531 -9.89796e-05 0.0115634)
(0.00010162 -0.000101622 0.0115178)
(7.22241e-05 -0.000106546 0.0114834)
(4.37843e-05 -0.00010853 0.0114602)
(1.41202e-05 -0.000110222 0.0114488)
(-1.41255e-05 -0.00011023 0.0114488)
(-4.3783e-05 -0.000108538 0.0114602)
(-7.22268e-05 -0.000106543 0.0114834)
(-0.000101623 -0.000101622 0.0115178)
(-0.000130531 -9.89855e-05 0.0115633)