/*--------------------------------*- C++ -*----------------------------------*\
| =========                 |                                                 |
| \\      /  F ield         | OpenFOAM: The Open Source CFD Toolbox           |
|  \\    /   O peration     | Version:  2406                                  |
|   \\  /    A nd           | Website:  www.openfoam.com                      |
|    \\/     M anipulation  |                                                 |
\*---------------------------------------------------------------------------*/
FoamFile
{
    version     2.0;
    format      ascii;
    arch        "LSB;label=32;scalar=64";
    class       surfaceScalarField;
    location    "2.5";
    object      phi;
}
// * * * * * * * * * * * * * * * * * * * * * * * * * * * * * * * * * * * * * //

dimensions      [0 3 -1 0 0 0 0];

oriented        oriented;

internalField   nonuniform List<scalar> 
43700
(
1.80512e-08
1.80532e-08
4.79419e-07
-2.27532e-08
-2.2757e-08
1.33945e-08
1.65948e-08
5.18604e-07
-2.11567e-08
8.86394e-09
1.54103e-08
5.48381e-07
-1.98288e-08
4.42911e-09
1.47409e-08
5.68455e-07
-1.90463e-08
-5.38493e-13
1.43391e-08
5.78542e-07
-1.85208e-08
-4.43153e-09
1.4338e-08
5.78541e-07
-1.8518e-08
-8.86413e-09
1.4741e-08
5.68454e-07
-1.90466e-08
-1.33965e-08
1.54108e-08
5.48379e-07
-1.98287e-08
-1.80518e-08
1.65959e-08
5.18604e-07
-2.11564e-08
1.80532e-08
4.7942e-07
-2.2754e-08
-2.27542e-08
1.65938e-08
1.33953e-08
5.18607e-07
-2.1156e-08
1.22137e-08
1.22166e-08
5.54605e-07
7.98839e-09
1.12995e-08
5.82029e-07
3.96329e-09
1.0737e-08
6.00525e-07
-2.32056e-12
1.04348e-08
6.09841e-07
-3.96462e-09
1.04341e-08
6.09841e-07
-7.98791e-09
1.07379e-08
6.00525e-07
-1.22158e-08
1.1299e-08
5.82031e-07
-1.65941e-08
1.22167e-08
5.54605e-07
1.33934e-08
5.18605e-07
-2.11576e-08
1.54102e-08
8.86494e-09
5.4838e-07
-1.98265e-08
1.1298e-08
7.98872e-09
5.8203e-07
7.38195e-09
7.38297e-09
6.07712e-07
3.65499e-09
6.99218e-09
6.25039e-07
-3.48327e-12
6.79579e-09
6.33771e-07
-3.65526e-09
6.79677e-09
6.33773e-07
-7.38361e-09
6.9927e-09
6.25038e-07
-1.12995e-08
7.38159e-09
6.07711e-07
-1.54123e-08
7.98699e-09
5.82029e-07
8.86356e-09
5.48381e-07
-1.98269e-08
1.47403e-08
4.43088e-09
5.68454e-07
-1.90458e-08
1.07377e-08
3.96213e-09
6.00525e-07
6.99172e-09
3.65311e-09
6.25038e-07
3.44929e-09
3.4474e-09
6.41591e-07
-3.43391e-12
3.3496e-09
6.49939e-07
-3.45031e-09
3.34989e-09
6.4994e-07
-6.99404e-09
3.44902e-09
6.41592e-07
-1.07398e-08
3.65423e-09
6.25036e-07
-1.4742e-08
3.96351e-09
6.00526e-07
4.42947e-09
5.68456e-07
-1.9048e-08
1.43361e-08
5.75797e-15
5.7854e-07
-1.85183e-08
1.04346e-08
-1.96545e-13
6.09842e-07
6.79719e-09
1.46778e-12
6.33772e-07
3.35031e-09
-3.48716e-13
6.49941e-07
-3.07746e-12
-1.42016e-12
6.58097e-07
-3.35115e-09
-2.88266e-13
6.58096e-07
-6.79983e-09
-1.38377e-12
6.4994e-07
-1.04359e-08
-1.17497e-12
6.33773e-07
-1.43395e-08
-2.02005e-12
6.09842e-07
-2.53939e-12
5.78538e-07
-1.85186e-08
1.43363e-08
-4.43067e-09
5.78542e-07
-1.85195e-08
1.04356e-08
-3.96393e-09
6.09841e-07
6.79527e-09
-3.6576e-09
6.33773e-07
3.35037e-09
-3.4513e-09
6.49938e-07
-1.94483e-12
-3.35369e-09
6.58097e-07
-3.35288e-09
-3.35391e-09
6.58097e-07
-6.80026e-09
-3.45291e-09
6.49939e-07
-1.04363e-08
-3.6566e-09
6.33772e-07
-1.43399e-08
-3.96625e-09
6.0984e-07
-4.43206e-09
5.7854e-07
-1.85189e-08
1.474e-08
-8.86445e-09
5.68453e-07
-1.90454e-08
1.0737e-08
-7.99124e-09
6.00526e-07
6.99093e-09
-7.38296e-09
6.25037e-07
3.44887e-09
-6.99385e-09
6.41591e-07
-2.08573e-12
-6.80017e-09
6.4994e-07
-3.45209e-09
-6.80034e-09
6.4994e-07
-6.99302e-09
-6.99321e-09
6.4159e-07
-1.07414e-08
-7.38518e-09
6.25039e-07
-1.47426e-08
-7.98913e-09
6.00526e-07
-8.86562e-09
5.68454e-07
-1.90484e-08
1.5409e-08
-1.33947e-08
5.48382e-07
-1.98293e-08
1.13e-08
-1.22141e-08
5.8203e-07
7.38069e-09
-1.13015e-08
6.0771e-07
3.65241e-09
-1.07398e-08
6.25038e-07
-1.25245e-12
-1.04363e-08
6.33771e-07
-3.65524e-09
-1.04379e-08
6.33772e-07
-7.38524e-09
-1.07417e-08
6.2504e-07
-1.13006e-08
-1.13024e-08
6.07709e-07
-1.54117e-08
-1.22199e-08
5.8203e-07
-1.34e-08
5.48381e-07
-1.98304e-08
1.65942e-08
-1.80525e-08
5.18606e-07
-2.11534e-08
1.22112e-08
-1.65959e-08
5.54604e-07
7.988e-09
-1.54099e-08
5.8203e-07
3.96101e-09
-1.47419e-08
6.00525e-07
-1.92732e-12
-1.43386e-08
6.09842e-07
-3.96533e-09
-1.43403e-08
6.09841e-07
-7.99059e-09
-1.47425e-08
6.00523e-07
-1.22169e-08
-1.54116e-08
5.82031e-07
-1.65983e-08
-1.65982e-08
5.54602e-07
-1.80575e-08
5.18606e-07
-2.11589e-08
1.80524e-08
4.79418e-07
-2.27543e-08
-2.27505e-08
1.33909e-08
5.18606e-07
-2.11575e-08
8.86183e-09
5.48381e-07
-1.9829e-08
4.42738e-09
5.68453e-07
-1.9049e-08
-3.66139e-12
5.78541e-07
-1.85198e-08
-4.43129e-09
5.7854e-07
-1.85198e-08
-8.8661e-09
5.68455e-07
-1.90493e-08
-1.33978e-08
5.48379e-07
-1.98335e-08
-1.80574e-08
5.18605e-07
-2.11603e-08
4.79418e-07
-2.27527e-08
-2.27571e-08
2.96571e-08
2.96553e-08
4.90428e-07
-3.51613e-08
-3.51603e-08
2.16682e-08
2.48552e-08
5.2983e-07
-2.80907e-08
1.44811e-08
2.29327e-08
5.59781e-07
-2.71463e-08
7.22191e-09
2.13956e-08
5.79961e-07
-2.56425e-08
2.00636e-12
2.06921e-08
5.90082e-07
-2.50095e-08
-7.22001e-09
2.06919e-08
5.9008e-07
-2.50101e-08
-1.44788e-08
2.13949e-08
5.79961e-07
-2.56412e-08
-2.16667e-08
2.29318e-08
5.59781e-07
-2.71467e-08
-2.96567e-08
2.4855e-08
5.29832e-07
-2.80923e-08
2.96565e-08
4.90429e-07
-3.51611e-08
-3.51589e-08
2.48555e-08
2.16668e-08
5.29831e-07
-2.80924e-08
1.91837e-08
1.91827e-08
5.65951e-07
1.31211e-08
1.76365e-08
5.9339e-07
6.62859e-09
1.6526e-08
6.11886e-07
2.86335e-12
1.59768e-08
6.21185e-07
-6.62544e-09
1.59762e-08
6.21185e-07
-1.31192e-08
1.65255e-08
6.11887e-07
-1.91821e-08
1.7635e-08
5.93391e-07
-2.48562e-08
1.91809e-08
5.65952e-07
2.16655e-08
5.29831e-07
-2.80904e-08
2.29337e-08
1.44826e-08
5.5978e-07
-2.71466e-08
1.76366e-08
1.31213e-08
5.9339e-07
1.19938e-08
1.19934e-08
6.18997e-07
6.05969e-09
1.12425e-08
6.36258e-07
2.41023e-12
1.08603e-08
6.44948e-07
-6.05594e-09
1.0859e-08
6.44948e-07
-1.19919e-08
1.12411e-08
6.36259e-07
-1.7634e-08
1.19947e-08
6.18996e-07
-2.29331e-08
1.31194e-08
5.93391e-07
1.44811e-08
5.59782e-07
-2.71447e-08
2.1395e-08
7.22092e-09
5.79961e-07
-2.56444e-08
1.65249e-08
6.62795e-09
6.11887e-07
1.12423e-08
6.05942e-09
6.36258e-07
5.68767e-09
5.68799e-09
6.52702e-07
1.24095e-12
5.49289e-09
6.60992e-07
-5.68369e-09
5.49344e-09
6.60992e-07
-1.12387e-08
5.68718e-09
6.52701e-07
-1.6524e-08
6.05831e-09
6.36257e-07
-2.13946e-08
6.62729e-09
6.11888e-07
7.22335e-09
5.79961e-07
-2.56424e-08
2.06923e-08
1.54365e-12
5.9008e-07
-2.50104e-08
1.59765e-08
2.39692e-12
6.21184e-07
1.08593e-08
1.81788e-12
6.44947e-07
5.49386e-09
1.53926e-12
6.60993e-07
2.09834e-12
1.89849e-12
6.69081e-07
-5.48999e-09
2.98889e-12
6.69081e-07
-1.0857e-08
2.5562e-12
6.60992e-07
-1.59757e-08
1.80924e-12
6.4495e-07
-2.06905e-08
2.71575e-12
6.21183e-07
1.54081e-12
5.90081e-07
-2.50104e-08
2.06928e-08
-7.21894e-09
5.90082e-07
-2.50103e-08
1.59767e-08
-6.62567e-09
6.21184e-07
1.08597e-08
-6.05418e-09
6.4495e-07
5.49342e-09
-5.68303e-09
6.60991e-07
1.00703e-12
-5.49094e-09
6.69082e-07
-5.48985e-09
-5.4888e-09
6.6908e-07
-1.08572e-08
-5.68396e-09
6.60992e-07
-1.59737e-08
-6.05447e-09
6.44947e-07
-2.06907e-08
-6.62531e-09
6.21185e-07
-7.21918e-09
5.9008e-07
-2.50107e-08
2.13939e-08
-1.44791e-08
5.79961e-07
-2.56405e-08
1.65268e-08
-1.31164e-08
6.11887e-07
1.12416e-08
-1.19915e-08
6.36257e-07
5.6869e-09
-1.12384e-08
6.52702e-07
1.85782e-12
-1.08562e-08
6.60992e-07
-5.68404e-09
-1.08557e-08
6.60992e-07
-1.12389e-08
-1.12382e-08
6.52702e-07
-1.65246e-08
-1.19897e-08
6.36258e-07
-2.13931e-08
-1.31158e-08
6.11887e-07
-1.44762e-08
5.79959e-07
-2.56418e-08
2.29325e-08
-2.16654e-08
5.59782e-07
-2.71454e-08
1.76355e-08
-1.91802e-08
5.93391e-07
1.19936e-08
-1.76345e-08
6.18997e-07
6.05867e-09
-1.65236e-08
6.36259e-07
2.00479e-12
-1.59741e-08
6.44946e-07
-6.0556e-09
-1.59737e-08
6.44949e-07
-1.199e-08
-1.65222e-08
6.36258e-07
-1.76333e-08
-1.76323e-08
6.18997e-07
-2.2931e-08
-1.9177e-08
5.9339e-07
-2.16621e-08
5.59781e-07
-2.71448e-08
2.48554e-08
-2.96556e-08
5.29832e-07
-2.80914e-08
1.91824e-08
-2.48547e-08
5.65951e-07
1.312e-08
-2.29322e-08
5.93391e-07
6.62832e-09
-2.13935e-08
6.11887e-07
2.67596e-12
-2.06894e-08
6.21185e-07
-6.62546e-09
-2.06897e-08
6.21185e-07
-1.31173e-08
-2.13919e-08
6.11887e-07
-1.91792e-08
-2.29297e-08
5.9339e-07
-2.48542e-08
-2.48509e-08
5.6595e-07
-2.96508e-08
5.29831e-07
-2.80893e-08
2.96573e-08
4.90428e-07
-3.51595e-08
-3.51622e-08
2.16683e-08
5.29833e-07
-2.80907e-08
1.44814e-08
5.5978e-07
-2.71441e-08
7.22271e-09
5.7996e-07
-2.56401e-08
4.01323e-12
5.9008e-07
-2.50081e-08
-7.21907e-09
5.9008e-07
-2.50085e-08
-1.44766e-08
5.79961e-07
-2.56383e-08
-2.16629e-08
5.5978e-07
-2.71424e-08
-2.96522e-08
5.29832e-07
-2.80865e-08
4.9043e-07
-3.51562e-08
-3.516e-08
3.40377e-08
3.40388e-08
5.02252e-07
-3.99489e-08
-3.99502e-08
2.52429e-08
2.90427e-08
5.42177e-07
-3.25941e-08
1.70427e-08
2.7337e-08
5.72509e-07
-3.18673e-08
8.51808e-09
2.55947e-08
5.92933e-07
-3.00415e-08
-1.31961e-12
2.49081e-08
6.03174e-07
-2.94805e-08
-8.5195e-09
2.49074e-08
6.03173e-07
-2.94797e-08
-1.7046e-08
2.5595e-08
5.92932e-07
-3.00422e-08
-2.52441e-08
2.73391e-08
5.7251e-07
-3.18663e-08
-3.40382e-08
2.90441e-08
5.42177e-07
-3.25949e-08
3.404e-08
5.0225e-07
-3.99485e-08
-3.9952e-08
2.90431e-08
2.52435e-08
5.42179e-07
-3.25943e-08
2.26333e-08
2.26346e-08
5.78771e-07
1.56427e-08
2.12204e-08
6.06499e-07
7.93234e-09
2.00176e-08
6.25174e-07
-7.06093e-13
1.94796e-08
6.34548e-07
-7.93449e-09
1.94805e-08
6.34547e-07
-1.56455e-08
2.00179e-08
6.25174e-07
-2.2635e-08
2.1221e-08
6.06499e-07
-2.90431e-08
2.26353e-08
5.78769e-07
2.52445e-08
5.42178e-07
-3.2593e-08
2.73378e-08
1.70435e-08
5.72509e-07
-3.18657e-08
2.12202e-08
1.56428e-08
6.06499e-07
1.45583e-08
1.45584e-08
6.32321e-07
7.37306e-09
1.37534e-08
6.49706e-07
-7.86558e-13
1.33592e-08
6.58444e-07
-7.37651e-09
1.33589e-08
6.58444e-07
-1.45606e-08
1.37549e-08
6.49707e-07
-2.12229e-08
1.45599e-08
6.3232e-07
-2.73388e-08
1.56457e-08
6.06498e-07
1.70457e-08
5.7251e-07
-3.18652e-08
2.55948e-08
8.51943e-09
5.92933e-07
-3.0041e-08
2.00174e-08
7.93365e-09
6.25176e-07
1.37546e-08
7.37562e-09
6.49705e-07
6.99041e-09
6.98927e-09
6.66232e-07
-1.45703e-12
6.78931e-09
6.74552e-07
-6.99161e-09
6.7903e-09
6.74553e-07
-1.37549e-08
6.99021e-09
6.66232e-07
-2.002e-08
7.37556e-09
6.49704e-07
-2.55951e-08
7.934e-09
6.25176e-07
8.52157e-09
5.92931e-07
-3.00401e-08
2.49089e-08
-1.7668e-12
6.03173e-07
-2.94806e-08
1.94797e-08
-9.77653e-13
6.34546e-07
1.33591e-08
-1.79411e-12
6.58445e-07
6.78937e-09
-2.25628e-13
6.74552e-07
-1.58061e-13
-7.23746e-14
6.82661e-07
-6.79119e-09
-4.66946e-13
6.82662e-07
-1.33606e-08
-1.36753e-13
6.74552e-07
-1.94818e-08
4.02647e-13
6.58446e-07
-2.49079e-08
3.41634e-13
6.34545e-07
1.96022e-13
6.03173e-07
-2.94809e-08
2.4909e-08
-8.5209e-09
6.03174e-07
-2.948e-08
1.94794e-08
-7.93497e-09
6.34547e-07
1.33596e-08
-7.37586e-09
6.58446e-07
6.78914e-09
-6.99045e-09
6.74551e-07
-6.51951e-13
-6.79103e-09
6.82662e-07
-6.7917e-09
-6.79113e-09
6.82662e-07
-1.33601e-08
-6.99131e-09
6.74552e-07
-1.94803e-08
-7.37497e-09
6.58444e-07
-2.49077e-08
-7.9328e-09
6.34548e-07
-8.51887e-09
6.03173e-07
-2.94801e-08
2.55955e-08
-1.70451e-08
5.92932e-07
-3.00431e-08
2.00184e-08
-1.56447e-08
6.25175e-07
1.37548e-08
-1.456e-08
6.49704e-07
6.99002e-09
-1.37555e-08
6.66232e-07
-5.63191e-13
-1.33603e-08
6.74552e-07
-6.99095e-09
-1.33601e-08
6.74551e-07
-1.37541e-08
-1.37552e-08
6.66233e-07
-2.00181e-08
-1.45595e-08
6.49706e-07
-2.55956e-08
-1.56432e-08
6.25174e-07
-1.70438e-08
5.9293e-07
-3.00419e-08
2.73383e-08
-2.52436e-08
5.72509e-07
-3.18664e-08
2.12231e-08
-2.26349e-08
6.06499e-07
1.45598e-08
-2.12221e-08
6.32321e-07
7.37685e-09
-2.00194e-08
6.49707e-07
-1.34639e-12
-1.94811e-08
6.58445e-07
-7.37562e-09
-1.94786e-08
6.58445e-07
-1.45601e-08
-2.00178e-08
6.49706e-07
-2.12207e-08
-2.12206e-08
6.3232e-07
-2.73372e-08
-2.26336e-08
6.06497e-07
-2.52433e-08
5.72511e-07
-3.18657e-08
2.90444e-08
-3.40387e-08
5.42178e-07
-3.25957e-08
2.26351e-08
-2.90435e-08
5.78769e-07
1.5644e-08
-2.73383e-08
6.06498e-07
7.93554e-09
-2.55953e-08
6.25174e-07
1.04801e-12
-2.49085e-08
6.34546e-07
-7.93373e-09
-2.49084e-08
6.34548e-07
-1.56435e-08
-2.55961e-08
6.25174e-07
-2.26351e-08
-2.7339e-08
6.06498e-07
-2.90442e-08
-2.90446e-08
5.78771e-07
-3.40419e-08
5.42178e-07
-3.25939e-08
3.40391e-08
5.0225e-07
-3.99506e-08
-3.99503e-08
2.52433e-08
5.42178e-07
-3.25948e-08
1.7046e-08
5.72508e-07
-3.18657e-08
8.52012e-09
5.92932e-07
-3.00421e-08
1.79007e-12
6.03173e-07
-2.94801e-08
-8.51885e-09
6.03172e-07
-2.94803e-08
-1.70438e-08
5.92934e-07
-3.00413e-08
-2.52437e-08
5.72509e-07
-3.18669e-08
-3.40396e-08
5.42179e-07
-3.25944e-08
5.02253e-07
-3.99505e-08
-3.9952e-08
3.3675e-08
3.36755e-08
5.13695e-07
-3.93945e-08
-3.9396e-08
2.54025e-08
2.91952e-08
5.5431e-07
-3.30554e-08
1.7246e-08
2.77747e-08
5.85148e-07
-3.22567e-08
8.6444e-09
2.61228e-08
6.05874e-07
-3.0463e-08
1.16925e-12
2.55426e-08
6.16276e-07
-2.99996e-08
-8.64333e-09
2.5541e-08
6.16274e-07
-3.00007e-08
-1.7243e-08
2.61222e-08
6.05875e-07
-3.04637e-08
-2.54014e-08
2.77741e-08
5.85149e-07
-3.22562e-08
-3.36736e-08
2.91937e-08
5.54311e-07
-3.30557e-08
3.3674e-08
5.13695e-07
-3.93961e-08
-3.93946e-08
2.9196e-08
2.54037e-08
5.54311e-07
-3.30565e-08
2.28469e-08
2.28469e-08
5.91465e-07
1.58296e-08
2.16707e-08
6.19621e-07
8.04318e-09
2.05227e-08
6.38559e-07
3.86751e-13
2.00709e-08
6.48062e-07
-8.04152e-09
2.00707e-08
6.48061e-07
-1.58268e-08
2.05217e-08
6.3856e-07
-2.28456e-08
2.16708e-08
6.19621e-07
-2.91932e-08
2.28458e-08
5.91464e-07
2.54018e-08
5.54312e-07
-3.30557e-08
2.77741e-08
1.72453e-08
5.85149e-07
-3.2256e-08
2.16701e-08
1.5829e-08
6.1962e-07
1.49347e-08
1.49347e-08
6.45796e-07
7.57803e-09
1.41749e-08
6.6341e-07
4.16283e-13
1.38331e-08
6.72259e-07
-7.57642e-09
1.38334e-08
6.72259e-07
-1.49305e-08
1.41738e-08
6.63411e-07
-2.16699e-08
1.49328e-08
6.45797e-07
-2.77724e-08
1.58282e-08
6.1962e-07
1.72435e-08
5.8515e-07
-3.22555e-08
2.61215e-08
8.64551e-09
6.05875e-07
-3.04637e-08
2.05224e-08
8.04478e-09
6.3856e-07
1.41733e-08
7.57773e-09
6.6341e-07
7.21915e-09
7.21945e-09
6.80141e-07
7.1061e-14
7.04676e-09
6.88555e-07
-7.21807e-09
7.04868e-09
6.88558e-07
-1.41714e-08
7.2195e-09
6.80141e-07
-2.05211e-08
7.57693e-09
6.63409e-07
-2.61191e-08
8.04392e-09
6.38562e-07
8.64238e-09
6.05876e-07
-3.04629e-08
2.55413e-08
1.10837e-12
6.16275e-07
-2.99996e-08
2.00701e-08
1.51667e-12
6.48062e-07
1.38327e-08
1.39228e-12
6.7226e-07
7.04626e-09
5.55978e-13
6.88556e-07
3.66114e-13
-2.13808e-13
6.96756e-07
-7.04735e-09
5.37756e-13
6.96755e-07
-1.38317e-08
1.15785e-12
6.88556e-07
-2.00691e-08
7.62089e-13
6.7226e-07
-2.55407e-08
-2.20892e-13
6.48061e-07
-2.00724e-12
6.16275e-07
-2.99992e-08
2.55404e-08
-8.6421e-09
6.16275e-07
-2.9998e-08
2.00708e-08
-8.04155e-09
6.48062e-07
1.38334e-08
-7.5757e-09
6.72259e-07
7.04605e-09
-7.21855e-09
6.88556e-07
-6.19481e-14
-7.04468e-09
6.96755e-07
-7.0471e-09
-7.04505e-09
6.96756e-07
-1.38322e-08
-7.21761e-09
6.88555e-07
-2.00698e-08
-7.57802e-09
6.7226e-07
-2.55414e-08
-8.04253e-09
6.48062e-07
-8.64333e-09
6.16275e-07
-2.99996e-08
2.61208e-08
-1.72443e-08
6.05876e-07
-3.04635e-08
2.05219e-08
-1.58278e-08
6.3856e-07
1.4172e-08
-1.49313e-08
6.63409e-07
7.21914e-09
-1.4171e-08
6.80141e-07
-6.70481e-13
-1.38319e-08
6.88557e-07
-7.21869e-09
-1.3831e-08
6.88556e-07
-1.41742e-08
-1.4173e-08
6.80142e-07
-2.05214e-08
-1.49312e-08
6.6341e-07
-2.61208e-08
-1.58273e-08
6.38562e-07
-1.72455e-08
6.05874e-07
-3.04648e-08
2.77724e-08
-2.5402e-08
5.8515e-07
-3.22547e-08
2.16697e-08
-2.28465e-08
6.19621e-07
1.49327e-08
-2.16701e-08
6.45796e-07
7.57729e-09
-2.05207e-08
6.63411e-07
-1.21434e-13
-2.00692e-08
6.72259e-07
-7.57629e-09
-2.00693e-08
6.7226e-07
-1.49328e-08
-2.05218e-08
6.63412e-07
-2.16716e-08
-2.16717e-08
6.45797e-07
-2.77743e-08
-2.28467e-08
6.1962e-07
-2.54032e-08
5.85151e-07
-3.22583e-08
2.91936e-08
-3.36758e-08
5.54313e-07
-3.30562e-08
2.28463e-08
-2.9196e-08
5.91465e-07
1.58283e-08
-2.77735e-08
6.19621e-07
8.04321e-09
-2.61216e-08
6.38561e-07
-7.67808e-13
-2.55412e-08
6.48062e-07
-8.04278e-09
-2.55407e-08
6.48062e-07
-1.58296e-08
-2.61219e-08
6.3856e-07
-2.28471e-08
-2.77737e-08
6.19619e-07
-2.91958e-08
-2.91952e-08
5.91467e-07
-3.36734e-08
5.5431e-07
-3.30578e-08
3.36735e-08
5.13694e-07
-3.93962e-08
-3.93965e-08
2.54047e-08
5.54311e-07
-3.3057e-08
1.72439e-08
5.8515e-07
-3.22568e-08
8.64417e-09
6.05876e-07
-3.0464e-08
-8.91646e-13
6.16275e-07
-3.00011e-08
-8.64428e-09
6.16276e-07
-3.00001e-08
-1.72463e-08
6.05877e-07
-3.04644e-08
-2.54039e-08
5.85149e-07
-3.22557e-08
-3.3675e-08
5.54311e-07
-3.30568e-08
5.13695e-07
-3.93964e-08
-3.93952e-08
3.12304e-08
3.12306e-08
5.24219e-07
-3.64928e-08
-3.64947e-08
2.39903e-08
2.79354e-08
5.65697e-07
-3.20813e-08
1.6375e-08
2.69504e-08
5.97151e-07
-3.13379e-08
8.24666e-09
2.56364e-08
6.18261e-07
-2.98941e-08
1.90832e-13
2.52183e-08
6.28864e-07
-2.95606e-08
-8.2483e-09
2.52182e-08
6.28862e-07
-2.95604e-08
-1.63758e-08
2.56374e-08
6.18261e-07
-2.98929e-08
-2.3992e-08
2.69514e-08
5.97153e-07
-3.13378e-08
-3.12322e-08
2.79368e-08
5.65696e-07
-3.20817e-08
3.12337e-08
5.24218e-07
-3.64925e-08
-3.64923e-08
2.79366e-08
2.39917e-08
5.65697e-07
-3.208e-08
2.18928e-08
2.1892e-08
6.03554e-07
1.51421e-08
2.10701e-08
6.32252e-07
7.70021e-09
2.01139e-08
6.51523e-07
-2.41853e-13
1.97885e-08
6.61197e-07
-7.70095e-09
1.97874e-08
6.61194e-07
-1.51444e-08
2.01131e-08
6.51525e-07
-2.18935e-08
2.10716e-08
6.32251e-07
-2.79367e-08
2.18931e-08
6.03553e-07
2.39916e-08
5.65696e-07
-3.20826e-08
2.69508e-08
1.63759e-08
5.97152e-07
-3.13389e-08
2.10704e-08
1.51432e-08
6.3225e-07
1.4526e-08
1.45276e-08
6.58883e-07
7.37367e-09
1.38926e-08
6.76785e-07
-1.11221e-12
1.36392e-08
6.8578e-07
-7.37437e-09
1.36395e-08
6.85779e-07
-1.4526e-08
1.38924e-08
6.76786e-07
-2.10711e-08
1.45272e-08
6.58884e-07
-2.69525e-08
1.51439e-08
6.32251e-07
1.63783e-08
5.97151e-07
-3.13383e-08
2.56372e-08
8.24611e-09
6.18261e-07
-2.98946e-08
2.01146e-08
7.70076e-09
6.51524e-07
1.38912e-08
7.37299e-09
6.76787e-07
7.07152e-09
7.07246e-09
6.93781e-07
8.40288e-13
6.94563e-09
7.02322e-07
-7.07138e-09
6.94513e-09
7.02324e-07
-1.38925e-08
7.07294e-09
6.93781e-07
-2.01143e-08
7.37489e-09
6.76786e-07
-2.56379e-08
7.70196e-09
6.51525e-07
8.2492e-09
6.18261e-07
-2.98949e-08
2.52194e-08
-6.12557e-13
6.28863e-07
-2.95613e-08
1.97864e-08
2.9196e-13
6.61196e-07
1.36398e-08
-8.66777e-13
6.8578e-07
6.94554e-09
9.36795e-13
7.02323e-07
5.15815e-14
1.22844e-14
7.10644e-07
-6.94422e-09
8.10967e-13
7.10643e-07
-1.36392e-08
1.7141e-12
7.02323e-07
-1.97874e-08
7.92698e-13
6.8578e-07
-2.52179e-08
3.103e-12
6.61194e-07
1.39821e-12
6.28863e-07
-2.95621e-08
2.52199e-08
-8.24684e-09
6.28862e-07
-2.95614e-08
1.97869e-08
-7.70216e-09
6.61194e-07
1.36404e-08
-7.37275e-09
6.8578e-07
6.94339e-09
-7.07168e-09
7.02323e-07
8.64979e-13
-6.94399e-09
7.10643e-07
-6.94354e-09
-6.94253e-09
7.10643e-07
-1.36391e-08
-7.07065e-09
7.02322e-07
-1.97853e-08
-7.3706e-09
6.8578e-07
-2.52195e-08
-7.69889e-09
6.61196e-07
-8.24236e-09
6.28861e-07
-2.95611e-08
2.56376e-08
-1.63744e-08
6.18262e-07
-2.98949e-08
2.0113e-08
-1.51424e-08
6.51524e-07
1.38927e-08
-1.45251e-08
6.76786e-07
7.07296e-09
-1.38902e-08
6.93781e-07
1.38515e-12
-1.36381e-08
7.02323e-07
-7.07164e-09
-1.36377e-08
7.02324e-07
-1.38899e-08
-1.3889e-08
6.93779e-07
-2.01123e-08
-1.45243e-08
6.76785e-07
-2.5635e-08
-1.51383e-08
6.51525e-07
-1.63716e-08
6.18261e-07
-2.98935e-08
2.69522e-08
-2.39895e-08
5.97153e-07
-3.13406e-08
2.10725e-08
-2.18915e-08
6.32252e-07
1.45268e-08
-2.10702e-08
6.58883e-07
7.37343e-09
-2.01132e-08
6.76787e-07
1.04492e-12
-1.97847e-08
6.85778e-07
-7.3715e-09
-1.97852e-08
6.85779e-07
-1.45251e-08
-2.01127e-08
6.76787e-07
-2.10672e-08
-2.10671e-08
6.58883e-07
-2.69499e-08
-2.18898e-08
6.3225e-07
-2.39882e-08
5.97153e-07
-3.13369e-08
2.79368e-08
-3.12294e-08
5.65698e-07
-3.2083e-08
2.1893e-08
-2.79356e-08
6.03554e-07
1.51435e-08
-2.69497e-08
6.3225e-07
7.70241e-09
-2.56362e-08
6.51524e-07
1.56107e-12
-2.52174e-08
6.61195e-07
-7.70039e-09
-2.52178e-08
6.61195e-07
-1.51392e-08
-2.56346e-08
6.51524e-07
-2.18901e-08
-2.69488e-08
6.3225e-07
-2.79339e-08
-2.79345e-08
6.03555e-07
-3.12279e-08
5.65696e-07
-3.2079e-08
3.12326e-08
5.24218e-07
-3.64941e-08
-3.64946e-08
2.3992e-08
5.65696e-07
-3.2081e-08
1.63763e-08
5.97153e-07
-3.13368e-08
8.24798e-09
6.18262e-07
-2.98934e-08
1.94395e-12
6.28863e-07
-2.95598e-08
-8.24422e-09
6.28863e-07
-2.95587e-08
-1.63713e-08
6.18261e-07
-2.98916e-08
-2.39885e-08
5.97153e-07
-3.13373e-08
-3.12281e-08
5.65697e-07
-3.208e-08
5.2422e-07
-3.64921e-08
-3.64909e-08
2.68563e-08
2.68569e-08
5.33478e-07
-3.14848e-08
-3.14855e-08
2.09235e-08
2.48036e-08
5.75846e-07
-2.90231e-08
1.43218e-08
2.42999e-08
6.07882e-07
-2.84268e-08
7.24025e-09
2.34729e-08
6.2936e-07
-2.74908e-08
-7.83429e-13
2.3256e-08
6.40155e-07
-2.73076e-08
-7.23963e-09
2.32565e-08
6.40155e-07
-2.73073e-08
-1.43226e-08
2.34732e-08
6.2936e-07
-2.74917e-08
-2.09238e-08
2.43002e-08
6.07882e-07
-2.84261e-08
-2.68531e-08
2.4806e-08
5.75845e-07
-2.90233e-08
2.68567e-08
5.3348e-07
-3.14849e-08
-3.14858e-08
2.4803e-08
2.09249e-08
5.75846e-07
-2.90216e-08
1.93959e-08
1.93955e-08
6.1437e-07
1.33634e-08
1.89908e-08
6.43592e-07
6.79658e-09
1.83521e-08
6.63209e-07
-8.87691e-13
1.81872e-08
6.73063e-07
-6.79741e-09
1.81875e-08
6.73062e-07
-1.33623e-08
1.83536e-08
6.63209e-07
-1.93936e-08
1.89906e-08
6.43592e-07
-2.48012e-08
1.93964e-08
6.14371e-07
2.09245e-08
5.75846e-07
-2.90198e-08
2.42984e-08
1.43221e-08
6.07883e-07
-2.84266e-08
1.89898e-08
1.33639e-08
6.43591e-07
1.30784e-08
1.30798e-08
6.70704e-07
6.63895e-09
1.26551e-08
6.88924e-07
1.20669e-12
1.25228e-08
6.98082e-07
-6.64069e-09
1.25219e-08
6.98082e-07
-1.30795e-08
1.26555e-08
6.88924e-07
-1.89883e-08
1.3082e-08
6.70704e-07
-2.42964e-08
1.33646e-08
6.43592e-07
1.43212e-08
6.07882e-07
-2.8426e-08
2.34719e-08
7.2407e-09
6.29359e-07
-2.74902e-08
1.8352e-08
6.7984e-09
6.6321e-07
1.26536e-08
6.63898e-09
6.88926e-07
6.43447e-09
6.43518e-09
7.06219e-07
2.86977e-13
6.3666e-09
7.14913e-07
-6.43472e-09
6.3685e-09
7.14914e-07
-1.26544e-08
6.43575e-09
7.06221e-07
-1.83516e-08
6.64034e-09
6.88926e-07
-2.3471e-08
6.79748e-09
6.63209e-07
7.24006e-09
6.2936e-07
-2.74886e-08
2.32554e-08
9.56339e-13
6.40155e-07
-2.7306e-08
1.81861e-08
3.14963e-13
6.73062e-07
1.25232e-08
-2.08497e-13
6.98083e-07
6.36637e-09
-8.72417e-13
7.14915e-07
-2.20883e-14
-1.00406e-12
7.23379e-07
-6.36842e-09
1.38522e-13
7.23379e-07
-1.2524e-08
6.45691e-13
7.14913e-07
-1.81859e-08
1.81355e-13
6.98082e-07
-2.32541e-08
-3.35759e-14
6.73061e-07
-6.51993e-13
6.40156e-07
-2.7306e-08
2.3255e-08
-7.24134e-09
6.40155e-07
-2.7307e-08
1.81861e-08
-6.79739e-09
6.73062e-07
1.25227e-08
-6.63862e-09
6.98082e-07
6.36645e-09
-6.43531e-09
7.14914e-07
-1.61936e-13
-6.36819e-09
7.23378e-07
-6.36793e-09
-6.36774e-09
7.23379e-07
-1.25241e-08
-6.43583e-09
7.14914e-07
-1.81869e-08
-6.64046e-09
6.98083e-07
-2.32556e-08
-6.79992e-09
6.73063e-07
-7.24324e-09
6.40155e-07
-2.73066e-08
2.34724e-08
-1.43211e-08
6.29359e-07
-2.74892e-08
1.83527e-08
-1.33631e-08
6.63209e-07
1.26545e-08
-1.30809e-08
6.88925e-07
6.43513e-09
-1.26553e-08
7.0622e-07
-3.69626e-13
-1.25237e-08
7.14913e-07
-6.43665e-09
-1.25241e-08
7.14915e-07
-1.26558e-08
-1.26567e-08
7.06218e-07
-1.83544e-08
-1.30827e-08
6.88925e-07
-2.34713e-08
-1.33638e-08
6.6321e-07
-1.43242e-08
6.2936e-07
-2.74903e-08
2.4299e-08
-2.09247e-08
6.07883e-07
-2.84272e-08
1.89893e-08
-1.93966e-08
6.43592e-07
1.3082e-08
-1.89904e-08
6.70703e-07
6.63947e-09
-1.83534e-08
6.88926e-07
-1.23105e-12
-1.8186e-08
6.98081e-07
-6.64116e-09
-1.81872e-08
6.98082e-07
-1.30808e-08
-1.83537e-08
6.88927e-07
-1.89912e-08
-1.89917e-08
6.70703e-07
-2.42995e-08
-1.93975e-08
6.43592e-07
-2.0926e-08
6.07883e-07
-2.84264e-08
2.48039e-08
-2.68545e-08
5.75846e-07
-2.90207e-08
1.93966e-08
-2.48041e-08
6.14369e-07
1.33639e-08
-2.43e-08
6.43591e-07
6.79785e-09
-2.34724e-08
6.63209e-07
-7.97401e-13
-2.32556e-08
6.73062e-07
-6.79929e-09
-2.32567e-08
6.73063e-07
-1.33635e-08
-2.34726e-08
6.63209e-07
-1.93978e-08
-2.4302e-08
6.43593e-07
-2.48049e-08
-2.48074e-08
6.14371e-07
-2.68581e-08
5.75846e-07
-2.90243e-08
2.68546e-08
5.3348e-07
-3.14886e-08
-3.14856e-08
2.09231e-08
5.75847e-07
-2.90235e-08
1.43217e-08
6.07883e-07
-2.84253e-08
7.24132e-09
6.2936e-07
-2.74901e-08
-6.75006e-13
6.40155e-07
-2.7307e-08
-7.24165e-09
6.40155e-07
-2.73072e-08
-1.4324e-08
6.29361e-07
-2.74913e-08
-2.09279e-08
6.07883e-07
-2.84282e-08
-2.68588e-08
5.75846e-07
-2.90243e-08
5.3348e-07
-3.14886e-08
-3.14883e-08
2.33418e-08
2.33406e-08
5.41407e-07
-2.73066e-08
-2.73054e-08
1.84398e-08
2.21128e-08
5.84789e-07
-2.61559e-08
1.26609e-08
2.18215e-08
6.17453e-07
-2.56122e-08
6.42495e-09
2.13093e-08
6.39319e-07
-2.5034e-08
2.39679e-13
2.11991e-08
6.5031e-07
-2.49298e-08
-6.4248e-09
2.11991e-08
6.50311e-07
-2.49293e-08
-1.2661e-08
2.13092e-08
6.39319e-07
-2.50328e-08
-1.84417e-08
2.18192e-08
6.17455e-07
-2.5612e-08
-2.33429e-08
2.21125e-08
5.84789e-07
-2.61534e-08
2.33405e-08
5.41408e-07
-2.73059e-08
-2.73031e-08
2.21142e-08
1.84403e-08
5.84789e-07
-2.61561e-08
1.72815e-08
1.72801e-08
6.24036e-07
1.18552e-08
1.70603e-08
6.53779e-07
6.02821e-09
1.66141e-08
6.73732e-07
1.22453e-13
1.65272e-08
6.83761e-07
-6.02758e-09
1.65258e-08
6.83762e-07
-1.1855e-08
1.66126e-08
6.73733e-07
-1.72816e-08
1.70583e-08
6.5378e-07
-2.21151e-08
1.72791e-08
6.24037e-07
1.84389e-08
5.84789e-07
-2.61569e-08
2.18229e-08
1.26608e-08
6.17455e-07
-2.56132e-08
1.70609e-08
1.18543e-08
6.53779e-07
1.17349e-08
1.17356e-08
6.81354e-07
5.95765e-09
1.14326e-08
6.99884e-07
-1.36166e-12
1.13666e-08
7.092e-07
-5.95725e-09
1.13661e-08
7.09199e-07
-1.1734e-08
1.14318e-08
6.99882e-07
-1.706e-08
1.17344e-08
6.81355e-07
-2.18226e-08
1.18539e-08
6.53779e-07
1.26586e-08
6.17454e-07
-2.56139e-08
2.13105e-08
6.42408e-09
6.39319e-07
-2.50338e-08
1.66149e-08
6.02862e-09
6.73732e-07
1.14324e-08
5.95636e-09
6.99885e-07
5.8085e-09
5.80714e-09
7.17469e-07
1.34063e-12
5.77342e-09
7.26312e-07
-5.80587e-09
5.77381e-09
7.26315e-07
-1.14317e-08
5.8086e-09
7.17471e-07
-1.66146e-08
5.95697e-09
6.99885e-07
-2.13118e-08
6.0268e-09
6.73733e-07
6.42279e-09
6.39321e-07
-2.50355e-08
2.12004e-08
-5.4629e-13
6.5031e-07
-2.49299e-08
1.65265e-08
-2.36023e-13
6.83762e-07
1.13682e-08
1.82999e-12
7.092e-07
5.77407e-09
1.70481e-12
7.26314e-07
-1.92032e-13
8.96689e-13
7.34924e-07
-5.77093e-09
2.04008e-12
7.34923e-07
-1.13664e-08
7.31858e-13
7.26314e-07
-1.65271e-08
1.38614e-12
7.09199e-07
-2.12007e-08
2.90198e-13
6.83761e-07
8.75136e-13
6.50309e-07
-2.49307e-08
2.11998e-08
-6.42412e-09
6.5031e-07
-2.49306e-08
1.65275e-08
-6.02705e-09
6.83762e-07
1.13654e-08
-5.9556e-09
7.09199e-07
5.77348e-09
-5.8059e-09
7.26313e-07
6.11326e-13
-5.77223e-09
7.34923e-07
-5.77199e-09
-5.77201e-09
7.34925e-07
-1.13665e-08
-5.80563e-09
7.26314e-07
-1.65264e-08
-5.95444e-09
7.09201e-07
-2.11993e-08
-6.02586e-09
6.83762e-07
-6.42308e-09
6.5031e-07
-2.4931e-08
2.13092e-08
-1.26606e-08
6.39319e-07
-2.50342e-08
1.66143e-08
-1.1853e-08
6.73732e-07
1.1432e-08
-1.17343e-08
6.99884e-07
5.80789e-09
-1.14306e-08
7.1747e-07
-1.6409e-13
-1.13649e-08
7.26313e-07
-5.80586e-09
-1.13636e-08
7.26314e-07
-1.14305e-08
-1.14303e-08
7.17469e-07
-1.66127e-08
-1.17344e-08
6.99883e-07
-2.13092e-08
-1.18526e-08
6.73732e-07
-1.26586e-08
6.3932e-07
-2.50343e-08
2.1821e-08
-1.84403e-08
6.17454e-07
-2.56131e-08
1.706e-08
-1.72803e-08
6.5378e-07
1.17353e-08
-1.70604e-08
6.81354e-07
5.95746e-09
-1.66133e-08
6.99884e-07
2.94875e-13
-1.65255e-08
7.09199e-07
-5.95728e-09
-1.65261e-08
7.09201e-07
-1.17341e-08
-1.66126e-08
6.99884e-07
-1.70587e-08
-1.70581e-08
6.81355e-07
-2.18201e-08
-1.72782e-08
6.5378e-07
-1.84382e-08
6.17453e-07
-2.56137e-08
2.21131e-08
-2.33416e-08
5.84789e-07
-2.61557e-08
1.72804e-08
-2.21128e-08
6.24037e-07
1.18538e-08
-2.18216e-08
6.53778e-07
6.02641e-09
-2.13093e-08
6.73733e-07
-1.0054e-13
-2.11986e-08
6.83762e-07
-6.02609e-09
-2.11978e-08
6.83761e-07
-1.18533e-08
-2.1309e-08
6.73733e-07
-1.72792e-08
-2.18203e-08
6.53779e-07
-2.21126e-08
-2.21125e-08
6.24037e-07
-2.33376e-08
5.8479e-07
-2.61537e-08
2.33411e-08
5.41408e-07
-2.73044e-08
-2.73041e-08
1.84387e-08
5.8479e-07
-2.61555e-08
1.26594e-08
6.17454e-07
-2.56126e-08
6.42297e-09
6.3932e-07
-2.50341e-08
4.55938e-13
6.50308e-07
-2.49296e-08
-6.42308e-09
6.50309e-07
-2.49288e-08
-1.26585e-08
6.3932e-07
-2.50335e-08
-1.84383e-08
6.17454e-07
-2.56111e-08
-2.33399e-08
5.84789e-07
-2.61537e-08
5.41408e-07
-2.73048e-08
-2.73031e-08
2.00497e-08
2.00507e-08
5.48291e-07
-2.34905e-08
-2.34932e-08
1.59673e-08
1.94735e-08
5.92655e-07
-2.32534e-08
1.09854e-08
1.94117e-08
6.25899e-07
-2.28763e-08
5.58996e-09
1.91918e-08
6.48131e-07
-2.26068e-08
-6.72361e-13
1.91846e-08
6.59304e-07
-2.25881e-08
-5.58977e-09
1.91843e-08
6.59305e-07
-2.2589e-08
-1.09845e-08
1.9193e-08
6.48129e-07
-2.26074e-08
-1.59662e-08
1.94127e-08
6.25899e-07
-2.28771e-08
-2.00497e-08
1.94753e-08
5.92654e-07
-2.32558e-08
2.00521e-08
5.4829e-07
-2.34909e-08
-2.34918e-08
1.94719e-08
1.5966e-08
5.92655e-07
-2.32549e-08
1.51862e-08
1.51861e-08
6.32611e-07
1.03777e-08
1.5162e-08
6.62837e-07
5.27186e-09
1.49172e-08
6.83115e-07
-1.30751e-12
1.49074e-08
6.93312e-07
-5.27204e-09
1.49074e-08
6.93312e-07
-1.03794e-08
1.49184e-08
6.83115e-07
-1.51849e-08
1.51637e-08
6.62837e-07
-1.94733e-08
1.51876e-08
6.3261e-07
1.59688e-08
5.92654e-07
-2.32523e-08
1.94129e-08
1.09856e-08
6.25899e-07
-2.28758e-08
1.51611e-08
1.03773e-08
6.62838e-07
1.04084e-08
1.04081e-08
6.90861e-07
5.28206e-09
1.02361e-08
7.09691e-07
-1.13234e-12
1.02282e-08
7.19162e-07
-5.2832e-09
1.02284e-08
7.19159e-07
-1.04095e-08
1.02355e-08
7.0969e-07
-1.51614e-08
1.04103e-08
6.90861e-07
-1.94127e-08
1.03786e-08
6.62837e-07
1.09877e-08
6.25898e-07
-2.28766e-08
1.91931e-08
5.58937e-09
6.48129e-07
-2.26075e-08
1.49166e-08
5.27057e-09
6.83114e-07
1.02368e-08
5.28195e-09
7.09693e-07
5.18972e-09
5.18889e-09
7.27561e-07
-4.8545e-13
5.1843e-09
7.36548e-07
-5.1923e-09
5.18591e-09
7.3655e-07
-1.02376e-08
5.19055e-09
7.27561e-07
-1.4918e-08
5.28322e-09
7.09691e-07