/*--------------------------------*- C++ -*----------------------------------*\
| =========                 |                                                 |
| \\      /  F ield         | OpenFOAM: The Open Source CFD Toolbox           |
|  \\    /   O peration     | Version:  2406                                  |
|   \\  /    A nd           | Website:  www.openfoam.com                      |
|    \\/     M anipulation  |                                                 |
\*---------------------------------------------------------------------------*/
FoamFile
{
    version     2.0;
    format      ascii;
    arch        "LSB;label=32;scalar=64";
    class       volVectorField;
    location    "2.5";
    object      U;
}
// * * * * * * * * * * * * * * * * * * * * * * * * * * * * * * * * * * * * * //

dimensions      [0 1 -1 0 0 0 0];

internalField   nonuniform List<vector> 
15000
(
(0.000144992 0.000145026 0.0100042)
(0.000107885 0.000136308 0.0100016)
(7.39763e-05 0.000124774 0.00999942)
(4.35059e-05 0.000117868 0.00999801)
(1.44665e-05 0.000113605 0.00999738)
(-1.44732e-05 0.000113603 0.00999735)
(-4.3517e-05 0.000117873 0.009998)
(-7.39841e-05 0.000124789 0.00999936)
(-0.000107884 0.000136312 0.0100016)
(-0.000145012 0.000145013 0.0100041)
(0.000136307 0.000107893 0.0100017)
(9.60459e-05 9.60684e-05 0.00999894)
(6.6016e-05 8.83541e-05 0.00999659)
(3.85282e-05 8.34069e-05 0.00999514)
(1.26243e-05 8.0677e-05 0.00999459)
(-1.26378e-05 8.06766e-05 0.00999456)
(-3.85289e-05 8.34062e-05 0.00999515)
(-6.60126e-05 8.83576e-05 0.00999662)
(-9.60665e-05 9.6076e-05 0.00999892)
(-0.00013631 0.000107888 0.0100016)
(0.000124766 7.39733e-05 0.00999939)
(8.83543e-05 6.60223e-05 0.00999661)
(6.02344e-05 6.02446e-05 0.00999443)
(3.50427e-05 5.64728e-05 0.00999336)
(1.14405e-05 5.45653e-05 0.00999296)
(-1.14526e-05 5.45731e-05 0.00999296)
(-3.50594e-05 5.64772e-05 0.00999334)
(-6.02414e-05 6.02265e-05 0.00999445)
(-8.8359e-05 6.60143e-05 0.00999657)
(-0.000124777 7.39753e-05 0.00999938)
(0.000117862 4.35086e-05 0.00999795)
(8.34213e-05 3.85306e-05 0.00999516)
(5.64689e-05 3.50476e-05 0.00999334)
(3.2696e-05 3.26916e-05 0.00999264)
(1.0649e-05 3.15402e-05 0.00999242)
(-1.06688e-05 3.15331e-05 0.00999244)
(-3.27078e-05 3.26952e-05 0.00999268)
(-5.64825e-05 3.50474e-05 0.00999331)
(-8.34186e-05 3.85263e-05 0.00999518)
(-0.000117874 4.35008e-05 0.009998)
(0.0001136 1.44747e-05 0.00999736)
(8.06811e-05 1.26231e-05 0.00999457)
(5.45741e-05 1.1451e-05 0.00999301)
(3.15318e-05 1.06536e-05 0.00999244)
(1.02778e-05 1.02808e-05 0.00999238)
(-1.02969e-05 1.02826e-05 0.00999235)
(-3.1551e-05 1.06495e-05 0.00999245)
(-5.45808e-05 1.14505e-05 0.00999299)
(-8.06942e-05 1.26161e-05 0.0099946)
(-0.000113603 1.44581e-05 0.00999724)
(0.000113595 -1.44748e-05 0.00999735)
(8.06837e-05 -1.26317e-05 0.00999457)
(5.45654e-05 -1.14643e-05 0.00999299)
(3.15363e-05 -1.06722e-05 0.00999241)
(1.02784e-05 -1.0304e-05 0.00999238)
(-1.03024e-05 -1.02982e-05 0.00999238)
(-3.15549e-05 -1.06751e-05 0.0099924)
(-5.45799e-05 -1.14658e-05 0.009993)
(-8.06922e-05 -1.26415e-05 0.00999454)
(-0.000113604 -1.44861e-05 0.00999731)
(0.00011786 -4.35073e-05 0.00999792)
(8.3412e-05 -3.8537e-05 0.0099952)
(5.6466e-05 -3.50613e-05 0.00999332)
(3.26903e-05 -3.27049e-05 0.00999263)
(1.06551e-05 -3.15622e-05 0.00999245)
(-1.06725e-05 -3.15569e-05 0.00999243)
(-3.27103e-05 -3.2707e-05 0.00999259)
(-5.64794e-05 -3.50654e-05 0.00999335)
(-8.34293e-05 -3.85398e-05 0.00999518)
(-0.000117883 -4.35211e-05 0.00999802)
(0.000124775 -7.39716e-05 0.0099994)
(8.83482e-05 -6.60258e-05 0.00999658)
(6.02368e-05 -6.02427e-05 0.00999445)
(3.50346e-05 -5.64883e-05 0.00999335)
(1.1445e-05 -5.45817e-05 0.00999299)
(-1.14552e-05 -5.45955e-05 0.00999297)
(-3.50639e-05 -5.64912e-05 0.00999339)
(-6.02537e-05 -6.02564e-05 0.00999436)
(-8.83573e-05 -6.60396e-05 0.00999663)
(-0.00012478 -7.39966e-05 0.00999945)
(0.000136294 -0.00010789 0.0100016)
(9.60486e-05 -9.60679e-05 0.00999893)
(6.6007e-05 -8.83601e-05 0.00999659)
(3.85145e-05 -8.34265e-05 0.00999514)
(1.26212e-05 -8.06896e-05 0.0099946)
(-1.26471e-05 -8.07039e-05 0.00999456)
(-3.85351e-05 -8.34264e-05 0.00999511)
(-6.60345e-05 -8.83646e-05 0.00999665)
(-9.60697e-05 -9.60952e-05 0.00999893)
(-0.000136327 -0.000107917 0.0100018)
(0.000145005 -0.00014501 0.0100041)
(0.00010787 -0.000136316 0.0100017)
(7.39535e-05 -0.000124777 0.00999944)
(4.34949e-05 -0.000117875 0.00999795)
(1.44522e-05 -0.000113607 0.00999735)
(-1.44815e-05 -0.000113603 0.00999729)
(-4.35238e-05 -0.000117881 0.00999805)
(-7.3993e-05 -0.000124798 0.00999943)
(-0.000107901 -0.00013633 0.0100017)
(-0.000145025 -0.000145034 0.0100042)
(0.000198799 0.000198777 0.010319)
(0.000144632 0.000169523 0.0102893)
(0.000100447 0.000165607 0.0102677)
(5.97756e-05 0.00015914 0.0102538)
(1.97509e-05 0.000156379 0.0102466)
(-1.97332e-05 0.000156379 0.0102465)
(-5.9756e-05 0.000159135 0.0102538)
(-0.000100432 0.000165608 0.0102676)
(-0.000144622 0.000169519 0.0102894)
(-0.000198794 0.000198793 0.0103191)
(0.000169522 0.000144615 0.0102893)
(0.000130857 0.000130841 0.0102595)
(9.53956e-05 0.000125693 0.0102384)
(5.69834e-05 0.000121603 0.0102247)
(1.90849e-05 0.000119837 0.0102179)
(-1.90518e-05 0.000119835 0.0102179)
(-5.6969e-05 0.000121604 0.0102247)
(-9.53851e-05 0.000125687 0.0102384)
(-0.000130849 0.000130841 0.0102595)
(-0.000169524 0.00014462 0.0102894)
(0.000165621 0.000100448 0.0102677)
(0.000125693 9.5394e-05 0.0102384)
(9.05474e-05 9.05457e-05 0.010218)
(5.39284e-05 8.72025e-05 0.0102045)
(1.80098e-05 8.54494e-05 0.0101978)
(-1.79826e-05 8.54443e-05 0.0101978)
(-5.39055e-05 8.71957e-05 0.0102045)
(-9.05295e-05 9.05461e-05 0.010218)
(-0.000125681 9.53898e-05 0.0102384)
(-0.000165612 0.000100443 0.0102677)
(0.000159151 5.9775e-05 0.0102538)
(0.000121592 5.6978e-05 0.0102247)
(8.72056e-05 5.39232e-05 0.0102045)
(5.19356e-05 5.19408e-05 0.0101909)
(1.73118e-05 5.08916e-05 0.0101843)
(-1.72895e-05 5.08926e-05 0.0101843)
(-5.1912e-05 5.19376e-05 0.0101909)
(-8.7185e-05 5.39281e-05 0.0102044)
(-0.000121586 5.69688e-05 0.0102247)
(-0.000159144 5.97685e-05 0.0102539)
(0.000156379 1.97511e-05 0.0102465)
(0.000119831 1.90827e-05 0.010218)
(8.54445e-05 1.80027e-05 0.0101977)
(5.08932e-05 1.7313e-05 0.0101844)
(1.69518e-05 1.69401e-05 0.0101778)
(-1.69162e-05 1.69475e-05 0.0101778)
(-5.08715e-05 1.73182e-05 0.0101843)
(-8.54382e-05 1.79988e-05 0.0101978)
(-0.00011983 1.90785e-05 0.0102179)
(-0.000156374 1.97576e-05 0.0102466)
(0.000156377 -1.97317e-05 0.0102466)
(0.00011984 -1.90554e-05 0.0102179)
(8.54494e-05 -1.79714e-05 0.0101978)
(5.08923e-05 -1.72869e-05 0.0101843)
(1.69386e-05 -1.6918e-05 0.0101778)
(-1.69177e-05 -1.69134e-05 0.0101778)
(-5.08774e-05 -1.72935e-05 0.0101844)
(-8.54252e-05 -1.79777e-05 0.0101978)
(-0.000119823 -1.90514e-05 0.0102179)
(-0.000156374 -1.9733e-05 0.0102466)
(0.000159141 -5.97573e-05 0.0102538)
(0.000121594 -5.69577e-05 0.0102247)
(8.72026e-05 -5.39093e-05 0.0102045)
(5.19364e-05 -5.19149e-05 0.0101909)
(1.73135e-05 -5.08795e-05 0.0101843)
(-1.72905e-05 -5.08678e-05 0.0101844)
(-5.19141e-05 -5.19192e-05 0.0101909)
(-8.71841e-05 -5.38985e-05 0.0102045)
(-0.000121588 -5.69516e-05 0.0102247)
(-0.000159135 -5.97445e-05 0.0102538)
(0.000165616 -0.000100431 0.0102677)
(0.000125678 -9.53782e-05 0.0102384)
(9.05451e-05 -9.05294e-05 0.010218)
(5.39273e-05 -8.71749e-05 0.0102045)
(1.79965e-05 -8.54237e-05 0.0101977)
(-1.79744e-05 -8.54223e-05 0.0101978)
(-5.38986e-05 -8.71681e-05 0.0102045)
(-9.05247e-05 -9.05153e-05 0.010218)
(-0.000125674 -9.53721e-05 0.0102384)
(-0.000165609 -0.000100416 0.0102676)
(0.000169521 -0.000144614 0.0102894)
(0.000130852 -0.000130833 0.0102594)
(9.53948e-05 -0.000125682 0.0102384)
(5.69854e-05 -0.000121586 0.0102247)
(1.9076e-05 -0.000119818 0.0102179)
(-1.90473e-05 -0.000119816 0.0102179)
(-5.6965e-05 -0.000121578 0.0102247)
(-9.53732e-05 -0.000125675 0.0102384)
(-0.00013084 -0.000130807 0.0102594)
(-0.000169515 -0.000144588 0.0102893)
(0.00019879 -0.000198788 0.010319)
(0.000144634 -0.000169519 0.0102894)
(0.000100454 -0.000165606 0.0102676)
(5.97754e-05 -0.000159133 0.0102538)
(1.9761e-05 -0.00015636 0.0102465)
(-1.97215e-05 -0.00015637 0.0102466)
(-5.97454e-05 -0.000159123 0.0102538)
(-0.000100419 -0.000165589 0.0102676)
(-0.000144607 -0.000169497 0.0102893)
(-0.000198766 -0.00019877 0.010319)
(0.000222777 0.000222784 0.0105606)
(0.000166068 0.000193634 0.0105218)
(0.000116258 0.000195001 0.010493)
(6.97338e-05 0.0001886 0.0104743)
(2.27593e-05 0.000187226 0.0104644)
(-2.278e-05 0.000187215 0.0104644)
(-6.97387e-05 0.000188602 0.0104743)
(-0.000116272 0.000194999 0.010493)
(-0.000166081 0.000193639 0.0105218)
(-0.000222777 0.000222796 0.0105604)
(0.000193634 0.000166079 0.0105218)
(0.000153796 0.000153791 0.0104822)
(0.000111943 0.000150641 0.0104512)
(6.76264e-05 0.000146858 0.0104312)
(2.2641e-05 0.000145766 0.0104211)
(-2.26536e-05 0.000145768 0.0104211)
(-6.7643e-05 0.000146864 0.0104312)
(-0.000111963 0.000150649 0.0104512)
(-0.000153792 0.000153799 0.0104822)
(-0.000193633 0.000166088 0.0105218)
(0.000194992 0.000116258 0.0104929)
(0.000150647 0.000111952 0.0104512)
(0.000109077 0.000109073 0.0104203)
(6.52989e-05 0.000106251 0.0104004)
(2.18609e-05 0.000104928 0.0103907)
(-2.18736e-05 0.000104937 0.0103907)
(-6.53146e-05 0.000106265 0.0104004)
(-0.000109098 0.000109084 0.0104203)
(-0.000150656 0.000111968 0.0104512)
(-0.000194999 0.00011627 0.010493)
(0.000188597 6.97335e-05 0.0104743)
(0.000146866 6.76225e-05 0.0104312)
(0.000106251 6.53034e-05 0.0104004)
(6.36893e-05 6.36732e-05 0.0103809)
(2.13749e-05 6.28681e-05 0.0103715)
(-2.13788e-05 6.28737e-05 0.0103715)
(-6.36957e-05 6.36812e-05 0.0103809)
(-0.000106265 6.53096e-05 0.0104004)
(-0.000146878 6.76354e-05 0.0104312)
(-0.000188588 6.97515e-05 0.0104742)
(0.000187224 2.27629e-05 0.0104644)
(0.000145773 2.26429e-05 0.0104211)
(0.000104934 2.18751e-05 0.0103907)
(6.28702e-05 2.13704e-05 0.0103715)
(2.10588e-05 2.10574e-05 0.0103624)
(-2.10623e-05 2.105e-05 0.0103624)
(-6.28787e-05 2.13681e-05 0.0103716)
(-0.000104942 2.18848e-05 0.0103907)
(-0.000145781 2.26552e-05 0.0104211)
(-0.000187221 2.27759e-05 0.0104644)
(0.000187216 -2.27853e-05 0.0104644)
(0.00014578 -2.26567e-05 0.0104211)
(0.000104929 -2.1889e-05 0.0103907)
(6.28726e-05 -2.13746e-05 0.0103715)
(2.10544e-05 -2.10626e-05 0.0103624)
(-2.10639e-05 -2.10656e-05 0.0103624)
(-6.28809e-05 -2.1374e-05 0.0103715)
(-0.000104926 -2.1877e-05 0.0103906)
(-0.000145784 -2.26524e-05 0.0104211)
(-0.000187211 -2.277e-05 0.0104644)
(0.000188617 -6.97502e-05 0.0104743)
(0.000146865 -6.76353e-05 0.0104312)
(0.000106257 -6.53096e-05 0.0104004)
(6.36916e-05 -6.36878e-05 0.0103809)
(2.13684e-05 -6.2876e-05 0.0103716)
(-2.13768e-05 -6.28741e-05 0.0103715)
(-6.3676e-05 -6.36894e-05 0.0103809)
(-0.000106264 -6.53113e-05 0.0104004)
(-0.00014687 -6.76298e-05 0.0104312)
(-0.000188601 -6.97331e-05 0.0104742)
(0.000194998 -0.000116259 0.010493)
(0.000150655 -0.000111962 0.0104512)
(0.000109095 -0.000109092 0.0104203)
(6.53139e-05 -0.000106264 0.0104004)
(2.18848e-05 -0.000104941 0.0103907)
(-2.18861e-05 -0.000104925 0.0103907)
(-6.5312e-05 -0.000106266 0.0104004)
(-0.000109089 -0.000109088 0.0104203)
(-0.000150643 -0.000111945 0.0104512)
(-0.000194983 -0.000116258 0.010493)
(0.000193649 -0.000166079 0.0105218)
(0.000153796 -0.000153796 0.0104822)
(0.000111963 -0.000150652 0.0104512)
(6.764e-05 -0.00014687 0.0104312)
(2.26599e-05 -0.000145779 0.0104211)
(-2.26467e-05 -0.000145776 0.0104211)
(-6.76394e-05 -0.000146866 0.0104312)
(-0.000111946 -0.000150653 0.0104512)
(-0.000153801 -0.000153796 0.0104823)
(-0.000193637 -0.000166092 0.0105219)
(0.000222793 -0.000222781 0.0105605)
(0.000166075 -0.000193638 0.0105219)
(0.000116275 -0.000194989 0.010493)
(6.97473e-05 -0.000188608 0.0104743)
(2.27766e-05 -0.000187219 0.0104644)
(-2.27574e-05 -0.000187218 0.0104643)
(-6.97376e-05 -0.000188607 0.0104743)
(-0.000116265 -0.000194997 0.010493)
(-0.000166072 -0.000193643 0.0105219)
(-0.000222794 -0.000222802 0.0105606)
(0.000216228 0.000216222 0.0108096)
(0.000165232 0.00019266 0.0107645)
(0.000116264 0.000196921 0.0107325)
(7.02755e-05 0.000191936 0.010712)
(2.26117e-05 0.000191923 0.0107016)
(-2.26048e-05 0.000191921 0.0107016)
(-7.02609e-05 0.000191941 0.010712)
(-0.000116247 0.000196914 0.0107325)
(-0.000165227 0.000192657 0.0107645)
(-0.00021622 0.000216226 0.0108096)
(0.000192655 0.000165249 0.0107646)
(0.000154631 0.000154619 0.0107234)
(0.000112031 0.00015332 0.0106919)
(6.83064e-05 0.000150215 0.0106714)
(2.26691e-05 0.000149824 0.0106607)
(-2.266e-05 0.000149821 0.0106607)
(-6.82923e-05 0.000150219 0.0106713)
(-0.000112021 0.000153326 0.0106919)
(-0.000154612 0.000154612 0.0107234)
(-0.000192644 0.000165235 0.0107646)
(0.000196913 0.000116254 0.0107326)
(0.000153315 0.00011203 0.0106919)
(0.000111323 0.000111315 0.010661)
(6.693e-05 0.000109175 0.0106402)
(2.24003e-05 0.000108524 0.0106295)
(-2.23866e-05 0.000108526 0.0106295)
(-6.69112e-05 0.000109169 0.0106402)
(-0.00011131 0.000111318 0.010661)
(-0.000153311 0.000112028 0.0106919)
(-0.000196908 0.000116247 0.0107325)
(0.000191935 7.02759e-05 0.010712)
(0.000150212 6.83133e-05 0.0106714)
(0.000109167 6.69326e-05 0.0106401)
(6.57115e-05 6.57196e-05 0.0106189)
(2.20869e-05 6.52301e-05 0.0106082)
(-2.20747e-05 6.52311e-05 0.0106082)
(-6.57029e-05 6.57097e-05 0.0106189)
(-0.000109159 6.6922e-05 0.0106401)
(-0.000150202 6.83068e-05 0.0106714)
(-0.000191931 7.02631e-05 0.010712)
(0.000191924 2.26084e-05 0.0107016)
(0.000149822 2.26737e-05 0.0106607)
(0.000108518 2.23936e-05 0.0106295)
(6.52327e-05 2.20821e-05 0.0106082)
(2.19021e-05 2.1908e-05 0.0105974)
(-2.19019e-05 2.19153e-05 0.0105975)
(-6.5227e-05 2.20871e-05 0.0106082)
(-0.000108513 2.23889e-05 0.0106295)
(-0.000149821 2.26582e-05 0.0106607)
(-0.00019191 2.25932e-05 0.0107016)
(0.000191902 -2.2592e-05 0.0107016)
(0.000149828 -2.26574e-05 0.0106607)
(0.000108523 -2.23791e-05 0.0106295)
(6.52372e-05 -2.20795e-05 0.0106082)
(2.19074e-05 -2.19022e-05 0.0105975)
(-2.19124e-05 -2.18975e-05 0.0105975)
(-6.52312e-05 -2.20784e-05 0.0106082)
(-0.000108518 -2.23921e-05 0.0106295)
(-0.000149818 -2.26637e-05 0.0106607)
(-0.000191914 -2.26151e-05 0.0107016)
(0.000191927 -7.02683e-05 0.010712)
(0.000150214 -6.82955e-05 0.0106714)
(0.000109166 -6.69194e-05 0.0106401)
(6.57101e-05 -6.56955e-05 0.0106189)
(2.20785e-05 -6.52214e-05 0.0106082)
(-2.20826e-05 -6.52251e-05 0.0106082)
(-6.57122e-05 -6.57019e-05 0.0106189)
(-0.000109165 -6.69243e-05 0.0106402)
(-0.000150216 -6.82952e-05 0.0106713)
(-0.000191931 -7.02744e-05 0.010712)
(0.000196909 -0.000116248 0.0107325)
(0.000153305 -0.000112026 0.0106919)
(0.000111317 -0.000111308 0.010661)
(6.6933e-05 -0.000109163 0.0106402)
(2.2387e-05 -0.00010852 0.0106295)
(-2.23871e-05 -0.000108506 0.0106295)
(-6.69214e-05 -0.000109169 0.0106402)
(-0.000111327 -0.000111314 0.010661)
(-0.000153315 -0.000112025 0.0106919)
(-0.000196927 -0.000116256 0.0107325)
(0.000192653 -0.000165246 0.0107646)
(0.000154617 -0.000154622 0.0107234)
(0.000112029 -0.000153315 0.0106919)
(6.83046e-05 -0.000150205 0.0106713)
(2.26622e-05 -0.000149814 0.0106607)
(-2.26627e-05 -0.00014982 0.0106607)
(-6.83099e-05 -0.000150212 0.0106713)
(-0.000112029 -0.00015332 0.0106919)
(-0.000154631 -0.000154623 0.0107234)
(-0.000192658 -0.000165244 0.0107645)
(0.000216216 -0.000216232 0.0108095)
(0.000165247 -0.000192662 0.0107646)
(0.000116261 -0.000196918 0.0107325)
(7.02682e-05 -0.00019194 0.010712)
(2.26083e-05 -0.00019192 0.0107016)
(-2.26088e-05 -0.000191909 0.0107016)
(-7.02813e-05 -0.000191938 0.010712)
(-0.000116268 -0.00019691 0.0107325)
(-0.000165252 -0.00019266 0.0107646)
(-0.000216228 -0.000216213 0.0108095)
(0.000197544 0.000197551 0.0110462)
(0.000153852 0.000184219 0.0109966)
(0.000109074 0.000190891 0.0109596)
(6.62929e-05 0.000188619 0.0109346)
(2.1137e-05 0.000189881 0.0109219)
(-2.11432e-05 0.000189885 0.0109219)
(-6.62956e-05 0.000188616 0.0109346)
(-0.000109087 0.000190883 0.0109597)
(-0.000153868 0.000184214 0.0109967)
(-0.000197545 0.00019755 0.0110462)
(0.000184217 0.00015385 0.0109966)
(0.000147795 0.000147776 0.0109453)
(0.00010638 0.000148943 0.0109064)
(6.51365e-05 0.000147259 0.0108805)
(2.13743e-05 0.000147652 0.0108676)
(-2.13787e-05 0.000147651 0.0108675)
(-6.51416e-05 0.000147265 0.0108806)
(-0.000106393 0.000148959 0.0109064)
(-0.000147801 0.000147787 0.0109453)
(-0.000184224 0.000153861 0.0109966)
(0.000190893 0.000109082 0.0109597)
(0.000148955 0.000106381 0.0109063)
(0.00010803 0.000108036 0.0108671)
(6.50065e-05 0.000106933 0.0108416)
(2.16792e-05 0.000107057 0.010829)
(-2.16845e-05 0.000107055 0.010829)
(-6.50114e-05 0.00010693 0.0108416)
(-0.000108036 0.000108036 0.0108671)
(-0.000148963 0.000106388 0.0109064)
(-0.0001909 0.000109091 0.0109597)
(0.000188619 6.62899e-05 0.0109346)
(0.000147277 6.51364e-05 0.0108806)
(0.000106928 6.50107e-05 0.0108416)
(6.43685e-05 6.4368e-05 0.0108166)
(2.16022e-05 6.42934e-05 0.0108043)
(-2.15932e-05 6.42875e-05 0.0108043)
(-6.43752e-05 6.43595e-05 0.0108166)
(-0.000106926 6.50165e-05 0.0108416)
(-0.000147284 6.51422e-05 0.0108806)
(-0.000188623 6.63057e-05 0.0109346)
(0.000189893 2.11294e-05 0.0109219)
(0.000147654 2.13722e-05 0.0108676)
(0.00010705 2.16719e-05 0.010829)
(6.43027e-05 2.16048e-05 0.0108043)
(2.15969e-05 2.15944e-05 0.0107923)
(-2.16006e-05 2.15927e-05 0.0107922)
(-6.42813e-05 2.16166e-05 0.0108043)
(-0.000107059 2.16825e-05 0.010829)
(-0.000147655 2.13785e-05 0.0108675)
(-0.000189886 2.11468e-05 0.0109219)
(0.000189886 -2.11415e-05 0.0109219)
(0.000147665 -2.13786e-05 0.0108675)
(0.000107059 -2.1677e-05 0.010829)
(6.42839e-05 -2.16002e-05 0.0108043)
(2.15936e-05 -2.15927e-05 0.0107922)
(-2.15872e-05 -2.15826e-05 0.0107922)
(-6.42879e-05 -2.15996e-05 0.0108043)
(-0.000107046 -2.16698e-05 0.010829)
(-0.000147656 -2.13523e-05 0.0108676)
(-0.000189886 -2.11175e-05 0.0109219)
(0.000188631 -6.6285e-05 0.0109347)
(0.000147264 -6.5142e-05 0.0108806)
(0.000106929 -6.50022e-05 0.0108416)
(6.4373e-05 -6.43602e-05 0.0108166)
(2.16106e-05 -6.42915e-05 0.0108043)
(-2.1595e-05 -6.42794e-05 0.0108043)
(-6.43705e-05 -6.43509e-05 0.0108166)
(-0.000106914 -6.5001e-05 0.0108416)
(-0.000147249 -6.51228e-05 0.0108806)
(-0.000188624 -6.62665e-05 0.0109346)
(0.000190908 -0.000109076 0.0109597)
(0.000148955 -0.000106378 0.0109064)
(0.00010805 -0.000108045 0.0108671)
(6.50049e-05 -0.000106927 0.0108416)
(2.16857e-05 -0.000107045 0.010829)
(-2.16713e-05 -0.000107046 0.010829)
(-6.50002e-05 -0.000106917 0.0108416)
(-0.000108029 -0.000108012 0.0108671)
(-0.000148935 -0.000106366 0.0109064)
(-0.000190895 -0.00010907 0.0109597)
(0.000184227 -0.000153845 0.0109966)
(0.000147793 -0.000147786 0.0109454)
(0.000106387 -0.000148934 0.0109064)
(6.51494e-05 -0.00014726 0.0108806)
(2.1377e-05 -0.000147637 0.0108676)
(-2.13609e-05 -0.000147648 0.0108675)
(-6.51278e-05 -0.000147253 0.0108806)
(-0.000106371 -0.000148944 0.0109064)
(-0.000147775 -0.000147774 0.0109454)
(-0.000184201 -0.00015383 0.0109966)
(0.000197565 -0.000197534 0.0110462)
(0.000153865 -0.000184212 0.0109966)
(0.000109095 -0.000190883 0.0109597)
(6.62877e-05 -0.000188615 0.0109346)
(2.11553e-05 -0.000189884 0.0109219)
(-2.11255e-05 -0.000189873 0.0109219)
(-6.62694e-05 -0.000188613 0.0109346)
(-0.000109072 -0.000190875 0.0109597)
(-0.000153832 -0.000184209 0.0109966)
(-0.000197534 -0.000197536 0.0110463)
(0.000168172 0.000168172 0.0112601)
(0.000132467 0.000164597 0.0112144)
(9.43326e-05 0.000172706 0.0111802)
(5.73929e-05 0.000173454 0.0111573)
(1.82004e-05 0.00017574 0.011146)
(-1.82038e-05 0.000175745 0.0111459)
(-5.73948e-05 0.000173456 0.0111572)
(-9.43346e-05 0.000172709 0.0111802)
(-0.000132453 0.000164609 0.0112143)
(-0.000168147 0.000168185 0.0112601)
(0.000164583 0.000132475 0.0112144)
(0.000130741 0.000130734 0.0111691)
(9.34267e-05 0.000134288 0.0111349)
(5.72094e-05 0.000134472 0.0111116)
(1.85789e-05 0.000135684 0.0110997)
(-1.85894e-05 0.000135681 0.0110997)
(-5.7206e-05 0.000134486 0.0111116)
(-9.34148e-05 0.000134288 0.0111349)
(-0.000130722 0.000130747 0.011169)
(-0.000164575 0.000132469 0.0112143)
(0.000172701 9.43308e-05 0.0111803)
(0.000134283 9.34244e-05 0.0111349)
(9.72001e-05 9.72062e-05 0.0111)
(5.843e-05 9.74754e-05 0.0110759)
(1.94406e-05 9.84162e-05 0.0110637)
(-1.94354e-05 9.84116e-05 0.0110637)
(-5.84426e-05 9.74823e-05 0.0110759)
(-9.71987e-05 9.72169e-05 0.0110999)
(-0.000134273 9.3429e-05 0.0111349)
(-0.000172688 9.4328e-05 0.0111802)
(0.000173444 5.74015e-05 0.0111573)
(0.000134478 5.72153e-05 0.0111116)
(9.74642e-05 5.84364e-05 0.0110759)
(5.85672e-05 5.8574e-05 0.0110514)
(1.96211e-05 5.89356e-05 0.0110389)
(-1.96134e-05 5.89425e-05 0.0110389)
(-5.85738e-05 5.85713e-05 0.0110514)
(-9.74709e-05 5.84485e-05 0.0110759)
(-0.000134475 5.72131e-05 0.0111116)
(-0.000173426 5.74048e-05 0.0111572)
(0.000175739 1.82035e-05 0.0111459)
(0.00013567 1.85846e-05 0.0110997)
(9.84184e-05 1.94279e-05 0.0110637)
(5.89393e-05 1.96108e-05 0.0110389)
(1.98045e-05 1.97976e-05 0.0110264)
(-1.98078e-05 1.98087e-05 0.0110264)
(-5.89486e-05 1.96232e-05 0.0110389)
(-9.8421e-05 1.94353e-05 0.0110637)
(-0.000135668 1.8584e-05 0.0110996)
(-0.000175723 1.81925e-05 0.011146)
(0.000175743 -1.82027e-05 0.0111459)
(0.000135671 -1.85821e-05 0.0110997)
(9.84118e-05 -1.94334e-05 0.0110637)
(5.89389e-05 -1.96245e-05 0.0110389)
(1.98069e-05 -1.98156e-05 0.0110264)
(-1.98118e-05 -1.98085e-05 0.0110263)
(-5.89441e-05 -1.96236e-05 0.0110389)
(-9.84255e-05 -1.94374e-05 0.0110637)
(-0.000135676 -1.8593e-05 0.0110997)
(-0.000175741 -1.8213e-05 0.0111459)
(0.000173444 -5.74036e-05 0.0111572)
(0.000134477 -5.72116e-05 0.0111116)
(9.74712e-05 -5.8437e-05 0.0110759)
(5.85713e-05 -5.85719e-05 0.0110514)
(1.9619e-05 -5.89558e-05 0.0110389)
(-1.96235e-05 -5.8953e-05 0.0110389)
(-5.85835e-05 -5.85818e-05 0.0110513)
(-9.74798e-05 -5.8457e-05 0.0110759)
(-0.000134479 -5.72216e-05 0.0111116)
(-0.000173441 -5.74218e-05 0.0111572)
(0.000172702 -9.43309e-05 0.0111802)
(0.000134276 -9.34333e-05 0.0111349)
(9.72177e-05 -9.72159e-05 0.0111)
(5.84417e-05 -9.74868e-05 0.0110759)
(1.94328e-05 -9.84147e-05 0.0110637)
(-1.94423e-05 -9.84127e-05 0.0110636)
(-5.84442e-05 -9.74815e-05 0.0110759)
(-9.72204e-05 -9.72212e-05 0.0110999)
(-0.000134285 -9.34376e-05 0.0111349)
(-0.000172706 -9.43496e-05 0.0111802)
(0.000164583 -0.000132462 0.0112143)
(0.000130742 -0.000130735 0.011169)
(9.34319e-05 -0.000134287 0.0111349)
(5.72105e-05 -0.000134475 0.0111115)
(1.85856e-05 -0.000135672 0.0110996)
(-1.85856e-05 -0.000135689 0.0110997)
(-5.72198e-05 -0.000134484 0.0111116)
(-9.34372e-05 -0.000134299 0.0111349)
(-0.000130755 -0.000130758 0.0111691)
(-0.000164593 -0.00013248 0.0112143)
(0.000168162 -0.000168181 0.0112601)
(0.000132464 -0.000164601 0.0112143)
(9.43226e-05 -0.000172701 0.0111802)
(5.7395e-05 -0.000173451 0.0111573)
(1.82123e-05 -0.000175743 0.011146)
(-1.8213e-05 -0.000175744 0.0111459)
(-5.7401e-05 -0.000173456 0.0111572)
(-9.43518e-05 -0.000172718 0.0111802)
(-0.000132492 -0.000164612 0.0112143)
(-0.000168187 -0.00016818 0.0112601)
(0.000145011 0.000145007 0.0114405)
(0.000115627 0.000147632 0.0113954)
(8.29016e-05 0.000155509 0.0113578)
(5.0403e-05 0.000158115 0.0113315)
(1.60234e-05 0.000160763 0.0113184)
(-1.60153e-05 0.000160763 0.0113185)
(-5.04076e-05 0.000158114 0.0113315)
(-8.29133e-05 0.000155492 0.0113578)
(-0.000115632 0.000147623 0.0113954)
(-0.00014502 0.000144998 0.0114406)
(0.000147633 0.000115619 0.0113954)
(0.000116334 0.00011632 0.0113419)
(8.28004e-05 0.000120618 0.0113021)
(5.05403e-05 0.000121754 0.0112753)
(1.63149e-05 0.000123226 0.0112622)
(-1.63113e-05 0.000123224 0.0112622)
(-5.05364e-05 0.000121747 0.0112753)
(-8.28035e-05 0.000120608 0.0113021)
(-0.000116338 0.000116316 0.011342)
(-0.000147647 0.000115607 0.0113954)
(0.000155514 8.29108e-05 0.0113578)
(0.000120629 8.27935e-05 0.011302)
(8.72365e-05 8.72402e-05 0.0112615)
(5.2363e-05 8.81682e-05 0.0112351)
(1.73851e-05 8.94474e-05 0.0112221)
(-1.73935e-05 8.94375e-05 0.0112222)
(-5.23579e-05 8.81575e-05 0.0112351)
(-8.72254e-05 8.72262e-05 0.0112616)
(-0.000120632 8.27893e-05 0.0113021)
(-0.000155519 8.29009e-05 0.0113578)
(0.000158106 5.03988e-05 0.0113315)
(0.000121773 5.05373e-05 0.0112754)
(8.81582e-05 5.2366e-05 0.0112351)
(5.28524e-05 5.28396e-05 0.0112091)
(1.76858e-05 5.342e-05 0.0111963)
(-1.76607e-05 5.34193e-05 0.0111964)
(-5.28496e-05 5.28447e-05 0.0112091)
(-8.81547e-05 5.23573e-05 0.0112351)
(-0.000121774 5.05264e-05 0.0112754)
(-0.000158123 5.03857e-05 0.0113315)
(0.00016077 1.60166e-05 0.0113185)
(0.000123227 1.63152e-05 0.0112622)
(8.94526e-05 1.73837e-05 0.0112222)
(5.34223e-05 1.76837e-05 0.0111964)
(1.79652e-05 1.79606e-05 0.0111837)
(-1.79551e-05 1.79677e-05 0.0111837)
(-5.34095e-05 1.76815e-05 0.0111964)
(-8.94437e-05 1.73905e-05 0.0112222)
(-0.000123234 1.63101e-05 0.0112622)
(-0.000160772 1.60132e-05 0.0113185)
(0.000160767 -1.60214e-05 0.0113185)
(0.000123229 -1.63138e-05 0.0112622)
(8.94376e-05 -1.73822e-05 0.0112221)
(5.3417e-05 -1.76684e-05 0.0111964)
(1.79627e-05 -1.79566e-05 0.0111837)
(-1.79536e-05 -1.7954e-05 0.0111838)
(-5.34174e-05 -1.76754e-05 0.0111964)
(-8.94385e-05 -1.73776e-05 0.0112222)
(-0.000123226 -1.6308e-05 0.0112622)
(-0.000160765 -1.60114e-05 0.0113185)
(0.000158113 -5.04001e-05 0.0113315)
(0.000121751 -5.05282e-05 0.0112754)
(8.81604e-05 -5.23464e-05 0.0112351)
(5.28531e-05 -5.28384e-05 0.0112091)
(1.76732e-05 -5.34137e-05 0.0111964)
(-1.76682e-05 -5.34082e-05 0.0111964)
(-5.28459e-05 -5.28282e-05 0.0112091)
(-8.81489e-05 -5.23524e-05 0.0112351)
(-0.000121742 -5.05246e-05 0.0112754)
(-0.000158121 -5.03945e-05 0.0113315)
(0.000155507 -8.29076e-05 0.0113579)
(0.000120616 -8.27867e-05 0.0113021)
(8.72358e-05 -8.72369e-05 0.0112615)
(5.23569e-05 -8.81547e-05 0.0112352)
(1.73984e-05 -8.94278e-05 0.0112222)
(-1.73962e-05 -8.94243e-05 0.0112222)
(-5.23522e-05 -8.81509e-05 0.0112352)
(-8.72313e-05 -8.72236e-05 0.0112616)
(-0.000120615 -8.2785e-05 0.0113021)
(-0.000155504 -8.28951e-05 0.0113578)
(0.000147633 -0.000115623 0.0113954)
(0.000116324 -0.000116328 0.011342)
(8.27908e-05 -0.000120618 0.0113021)
(5.0527e-05 -0.000121748 0.0112754)
(1.63046e-05 -0.00012322 0.0112622)
(-1.63031e-05 -0.000123229 0.0112622)
(-5.05276e-05 -0.000121751 0.0112754)
(-8.27944e-05 -0.000120616 0.0113021)
(-0.000116316 -0.000116314 0.011342)
(-0.000147626 -0.000115599 0.0113954)
(0.00014501 -0.000145008 0.0114406)
(0.000115612 -0.000147631 0.0113954)
(8.29038e-05 -0.000155506 0.0113579)
(5.03776e-05 -0.000158117 0.0113315)
(1.6024e-05 -0.000160758 0.0113185)
(-1.60239e-05 -0.000160748 0.0113185)
(-5.03816e-05 -0.000158114 0.0113315)
(-8.29025e-05 -0.000155495 0.0113578)
(-0.000115607 -0.000147631 0.0113954)
(-0.000145008 -0.000144994 0.0114405)
(0.00012423 0.000124227 0.0115973)
(9.90468e-05 0.000131224 0.0115654)
(7.14727e-05 0.000139054 0.011535)
(4.32401e-05 0.000143129 0.0115131)
(1.38686e-05 0.000146046 0.0115023)
(-1.38786e-05 0.000146054 0.0115023)
(-4.3226e-05 0.000143133 0.0115131)
(-7.14675e-05 0.000139069 0.0115351)
(-9.90429e-05 0.000131236 0.0115653)
(-0.000124212 0.000124247 0.0115973)
(0.000131211 9.90537e-05 0.0115653)
(0.000102037 0.000102033 0.0115232)
(7.25224e-05 0.000107172 0.01149)
(4.39518e-05 0.00010931 0.0114668)
(1.41759e-05 0.000111064 0.0114551)
(-1.41859e-05 0.000111057 0.0114552)
(-4.39534e-05 0.000109325 0.0114668)
(-7.25261e-05 0.000107179 0.01149)
(-0.000102034 0.000102042 0.0115231)
(-0.000131207 9.90619e-05 0.0115653)
(0.00013906 7.14663e-05 0.011535)
(0.000107176 7.25204e-05 0.01149)
(7.74983e-05 7.75042e-05 0.011455)
(4.63122e-05 7.91277e-05 0.0114308)
(1.54126e-05 8.06675e-05 0.0114186)
(-1.54281e-05 8.06685e-05 0.0114186)
(-4.63161e-05 7.91226e-05 0.0114308)
(-7.75027e-05 7.75101e-05 0.011455)
(-0.000107176 7.25292e-05 0.01149)
(-0.000139053 7.14792e-05 0.011535)
(0.00014313 4.32439e-05 0.0115131)
(0.000109325 4.39448e-05 0.0114668)
(7.91205e-05 4.63076e-05 0.0114309)
(4.71967e-05 4.71886e-05 0.011406)
(1.57909e-05 4.79315e-05 0.0113934)
(-1.57968e-05 4.79383e-05 0.0113935)
(-4.7217e-05 4.7195e-05 0.011406)
(-7.91276e-05 4.63203e-05 0.0114308)
(-0.000109325 4.39557e-05 0.0114668)
(-0.000143122 4.32532e-05 0.0115131)
(0.00014606 1.38666e-05 0.0115023)
(0.000111049 1.4185e-05 0.0114552)
(8.06686e-05 1.54145e-05 0.0114186)
(4.79433e-05 1.57855e-05 0.0113935)
(1.61488e-05 1.61405e-05 0.0113809)
(-1.61554e-05 1.61479e-05 0.0113808)
(-4.79512e-05 1.57949e-05 0.0113935)
(-8.06877e-05 1.54172e-05 0.0114186)
(-0.00011107 1.41949e-05 0.0114551)
(-0.000146045 1.38736e-05 0.0115022)
(0.00014604 -1.3872e-05 0.0115023)
(0.00011107 -1.41904e-05 0.0114551)
(8.0674e-05 -1.54301e-05 0.0114186)
(4.7943e-05 -1.58059e-05 0.0113935)
(1.61423e-05 -1.61707e-05 0.0113809)
(-1.61749e-05 -1.61556e-05 0.0113808)
(-4.7946e-05 -1.58045e-05 0.0113935)
(-8.06904e-05 -1.54174e-05 0.0114186)
(-0.000111058 -1.41918e-05 0.0114551)
(-0.000146046 -1.38675e-05 0.0115023)
(0.000143127 -4.32442e-05 0.0115131)
(0.00010931 -4.39556e-05 0.0114668)
(7.91246e-05 -4.63255e-05 0.0114308)
(4.72074e-05 -4.72131e-05 0.011406)
(1.57973e-05 -4.79628e-05 0.0113934)
(-1.57985e-05 -4.79493e-05 0.0113935)
(-4.72118e-05 -4.72109e-05 0.011406)
(-7.91314e-05 -4.63215e-05 0.0114308)
(-0.000109315 -4.39533e-05 0.0114667)
(-0.000143117 -4.32404e-05 0.0115131)
(0.000139064 -7.1464e-05 0.011535)
(0.000107174 -7.25227e-05 0.01149)
(7.75149e-05 -7.75098e-05 0.0114551)
(4.63166e-05 -7.9143e-05 0.0114308)
(1.54118e-05 -8.06872e-05 0.0114186)
(-1.54263e-05 -8.06887e-05 0.0114186)
(-4.6313e-05 -7.91294e-05 0.0114308)
(-7.75009e-05 -7.7526e-05 0.011455)
(-0.000107167 -7.25284e-05 0.01149)
(-0.000139057 -7.14646e-05 0.011535)
(0.000131222 -9.90474e-05 0.0115653)
(0.000102044 -0.000102036 0.0115231)
(7.25371e-05 -0.000107189 0.0114899)
(4.39577e-05 -0.00010931 0.0114668)
(1.4193e-05 -0.000111064 0.0114551)
(-1.41852e-05 -0.000111076 0.0114551)
(-4.39563e-05 -0.000109324 0.0114668)
(-7.25325e-05 -0.000107187 0.0114899)
(-0.000102034 -0.000102046 0.0115231)
(-0.00013122 -9.90522e-05 0.0115653)
(0.000124225 -0.000124234 0.0115973)